LAMMPS (15 Sep 2022)
OMP_NUM_THREADS environment is not set. Defaulting to 1 thread. (src/comm.cpp:98)
  using 1 OpenMP thread(s) per MPI task
# 3d WCA system, random initial configuration

#variable density equal 0.6
variable initial_temperature equal 3.0
variable final_temperature equal 0.1
variable dt equal 0.005
variable tau equal 100*${dt}
variable tau equal 100*0.005
variable thermo_time equal 50000*${dt}
variable thermo_time equal 50000*0.005
variable equil_steps equal 50000
variable run_steps equal 100000

units           lj
atom_style      atomic
dimension       3                # 修改1：将维度改为3

lattice         fcc ${density}   # 修改2：将晶格类型改为 fcc
lattice         fcc 1.2   
Lattice spacing in x,y,z = 1.4938016 1.4938016 1.4938016
region          box block 0 8 0 8 0 8    # 修改3：调整区域大小为 8x8x8

# number of atom types
create_box      1 box
Created orthogonal box = (0 0 0) to (11.950413 11.950413 11.950413)
  1 by 1 by 1 MPI processor grid
create_atoms    1 box
Created 2048 atoms
  using lattice units in orthogonal box = (0 0 0) to (11.950413 11.950413 11.950413)
  create_atoms CPU = 0.000 seconds
mass 1 1.0

velocity all create ${initial_temperature} 12345
velocity all create 3 12345

pair_style      lj/cut 1.0
#type_1 type_2 epsilon sigma cutoff
pair_coeff      1 1 10.0 0.89089871814 1.0
pair_modify shift yes

timestep ${dt}
timestep 0.005
thermo ${thermo_time}
thermo 250

fix 1 all nvt temp ${initial_temperature} ${initial_temperature} ${tau}
fix 1 all nvt temp 3 ${initial_temperature} ${tau}
fix 1 all nvt temp 3 3 ${tau}
fix 1 all nvt temp 3 3 0.5
run ${equil_steps}
run 50000
Generated 0 of 0 mixed pair_coeff terms from geometric mixing rule
Neighbor list info ...
  update: every = 1 steps, delay = 0 steps, check = yes
  max neighbors/atom: 2000, page size: 100000
  master list distance cutoff = 1.3
  ghost atom cutoff = 1.3
  binsize = 0.65, bins = 19 19 19
  1 neighbor lists, perpetual/occasional/extra = 1 0 0
  (1) pair lj/cut, perpetual
      attributes: half, newton on
      pair build: half/bin/atomonly/newton
      stencil: half/bin/3d
      bin: standard
Per MPI rank memory allocation (min/avg/max) = 3.162 | 3.162 | 3.162 Mbytes
   Step          Temp          E_pair         E_mol          TotEng         Press     
         0   3              0              0              4.4978027      3.5982422    
       250   2.6219595      1.8159344      0              5.7469534      32.679676    
       500   3.0684712      2.3140215      0              6.9144808      38.653262    
       750   2.9808448      2.0964043      0              6.5654882      36.321142    
      1000   3.0187659      2.1752525      0              6.7011903      37.304565    
      1250   3.0340191      2.1568579      0              6.7056644      36.99616     
      1500   2.9913067      2.1541339      0              6.6389031      36.983422    
      1750   3.0682815      2.1803739      0              6.7805489      37.309182    
      2000   2.9627703      2.1276192      0              6.5696046      36.557649    
      2250   3.0924808      2.1434711      0              6.7799273      37.121777    
      2500   2.9182681      2.1852081      0              6.5604727      37.351719    
      2750   3.1234028      2.1385313      0              6.8213479      37.145564    
      3000   3.0522068      2.0936073      0              6.669682       36.565791    
      3250   3.0091957      2.2679156      0              6.7795051      38.001605    
      3500   3.0125285      2.2003488      0              6.716935       37.73493     
      3750   2.9973617      2.1726145      0              6.6664617      37.243783    
      4000   3.0395552      2.2985652      0              6.8556717      38.399256    
      4250   2.939924       2.242097       0              6.6498297      37.739601    
      4500   3.0132956      2.2493959      0              6.7671323      37.89105     
      4750   2.9585231      2.1098383      0              6.5454561      36.3689      
      5000   3.0626058      2.2001311      0              6.7917967      37.685509    
      5250   2.9898851      2.1639685      0              6.6466064      36.93317     
      5500   3.1095322      2.2160239      0              6.8780446      37.967285    
      5750   2.9548913      2.1985422      0              6.6287149      37.544796    
      6000   3.0346168      2.3668832      0              6.9165857      39.805071    
      6250   3.0767101      2.1402526      0              6.7530643      37.010731    
      6500   2.9368694      2.2365164      0              6.6396696      37.829986    
      6750   3.0635811      2.2891406      0              6.8822684      38.513965    
      7000   2.9655743      2.1452469      0              6.5914363      37.015404    
      7250   3.019125       2.2747665      0              6.8012428      38.411048    
      7500   2.9615228      2.0759235      0              6.5160386      36.187764    
      7750   3.0099044      2.2576934      0              6.7703455      38.595953    
      8000   2.9287876      2.1383686      0              6.5294048      37.053487    
      8250   2.9768227      2.2476179      0              6.7106717      37.989638    
      8500   3.0127278      2.2225884      0              6.7394736      37.437464    
      8750   2.9379541      2.2004706      0              6.6052499      37.369583    
      9000   3.0532224      2.27997        0              6.8575674      38.47458     
      9250   2.9550851      2.2031288      0              6.6335922      37.696095    
      9500   3.0420207      2.2432621      0              6.8040651      37.999192    
      9750   2.9425499      2.2067186      0              6.6183882      37.633308    
     10000   3.025415       2.2658484      0              6.801755       38.253136    
     10250   2.8942919      2.1947968      0              6.5341147      37.117327    
     10500   2.9722819      2.3330369      0              6.7892828      38.886159    
     10750   2.9814463      2.0914058      0              6.5613916      36.090635    
     11000   2.9565893      2.2478564      0              6.6805749      37.857391    
     11250   2.9826697      2.2115419      0              6.6833619      37.629875    
     11500   2.9301488      2.0180847      0              6.4111619      35.564828    
     11750   2.989883       2.2309769      0              6.7136115      37.97657     
     12000   2.9665559      2.1737983      0              6.6214594      37.02248     
     12250   3.0002667      2.222956       0              6.7211586      37.600244    
     12500   2.9548581      2.2287478      0              6.6588708      37.872599    
     12750   2.9482241      2.3129281      0              6.7331049      38.747643    
     13000   2.9861052      2.2082978      0              6.6852685      37.638081    
     13250   2.9928128      2.2084036      0              6.6954308      37.374653    
     13500   3.1742352      2.2540234      0              7.0130514      38.515175    
     13750   2.9885352      2.1586568      0              6.6392707      37.015868    
     14000   3.0535078      2.2219374      0              6.7999626      37.453865    
     14250   2.9713725      2.097622       0              6.5525044      36.162844    
     14500   3.0247131      2.2177024      0              6.7525567      37.708237    
     14750   2.9509352      2.2655721      0              6.6898135      38.042404    
     15000   3.0561287      2.0722666      0              6.6542213      36.238799    
     15250   3.0210285      2.2436228      0              6.7729528      38.172532    
     15500   2.9743909      2.0792833      0              6.5386912      36.133476    
     15750   3.0776875      2.1715113      0              6.7857883      37.428891    
     16000   2.932379       2.1957626      0              6.5921834      37.404745    
     16250   3.0676136      2.2508574      0              6.850031       38.323697    
     16500   2.8999033      2.276133       0              6.623864       38.347365    
     16750   3.0122384      2.2383347      0              6.754486       38.027527    
     17000   3.0371098      2.2144704      0              6.7679107      37.919938    
     17250   3.040059       2.0944769      0              6.6523388      36.767215    
     17500   3.0619266      2.1860445      0              6.7766918      37.331813    
     17750   3.0431722      2.0810615      0              6.6435909      36.201714    
     18000   3.0146795      2.2129447      0              6.732756       37.759498    
     18250   2.9776453      2.1079709      0              6.572258       36.655876    
     18500   3.0467827      2.1862685      0              6.754211       37.461753    
     18750   2.9924754      2.011838       0              6.4983593      34.92407     
     19000   3.0258338      2.1831001      0              6.7196346      37.44734     
     19250   2.9570902      2.0787747      0              6.5122442      35.993213    
     19500   2.9915949      2.2062632      0              6.6914644      37.617512    
     19750   2.9831698      2.2052545      0              6.6778243      37.720857    
     20000   2.8858572      2.2464117      0              6.5730838      37.955615    
     20250   2.9856674      2.2552697      0              6.731584       37.892282    
     20500   2.9780377      2.1403592      0              6.6052346      36.945508    
     20750   3.0505512      2.1266654      0              6.7002579      36.850526    
     21000   2.9797896      2.1563972      0              6.6238992      37.15837     
     21250   3.155594       2.1198941      0              6.850974       36.713811    
     21500   2.928025       2.215743       0              6.6056359      37.560084    
     21750   3.0385854      2.2349461      0              6.7905987      38.017134    
     22000   2.9681258      2.0967241      0              6.5467388      36.232379    
     22250   3.079568       2.1204637      0              6.7375602      36.562297    
     22500   3.0207426      2.1047303      0              6.6336317      36.809822    
     22750   3.079149       2.2421928      0              6.8586611      38.021908    
     23000   2.9708397      2.1444831      0              6.5985668      36.72269     
     23250   3.1367004      2.1915431      0              6.8942962      37.265229    
     23500   3.0001373      2.115223       0              6.6132316      36.318668    
     23750   3.0501443      2.2130093      0              6.7859917      37.915038    
     24000   2.9975125      2.0595645      0              6.5536378      35.82336     
     24250   3.0021713      2.2040238      0              6.7050818      37.556793    
     24500   3.03966        2.1078109      0              6.6650745      36.372458    
     24750   3.0110249      2.088995       0              6.603327       36.031154    
     25000   3.0180761      2.2193327      0              6.7442364      37.942149    
     25250   2.9682722      2.1582983      0              6.6085326      37.052153    
     25500   3.0431344      2.1887071      0              6.7511799      37.414873    
     25750   2.9745637      2.115142       0              6.5748089      36.687985    
     26000   3.030303       2.2099821      0              6.7532171      37.566888    
     26250   2.960599       2.2215059      0              6.6602361      37.465204    
     26500   3.014574       2.1845561      0              6.7042092      37.532752    
     26750   3.0299419      2.1697962      0              6.7124898      37.22864     
     27000   2.9919577      2.156654       0              6.6423992      37.350781    
     27250   2.992952       2.2068273      0              6.6940631      37.529223    
     27500   2.9442595      2.161849       0              6.5760819      37.176936    
     27750   3.0312145      2.2560753      0              6.800677       38.1701      
     28000   2.9521395      2.1153101      0              6.5413571      36.220442    
     28250   3.0139531      2.1870874      0              6.7058096      37.329698    
     28500   3.0404529      2.1364143      0              6.6948667      37.077639    
     28750   3.0180934      2.1227122      0              6.6476419      36.806656    
     29000   3.0277775      2.2160108      0              6.7554595      37.746783    
     29250   2.9488841      2.0568315      0              6.4779979      35.74065     
     29500   3.0360192      2.2063491      0              6.7581542      37.643107    
     29750   2.9835369      2.0876003      0              6.5607204      36.24311     
     30000   3.0657377      2.2158004      0              6.8121616      37.987759    
     30250   2.9778295      2.1520134      0              6.6165766      36.836377    
     30500   3.1053099      2.2252603      0              6.8809507      37.944516    
     30750   2.9760046      2.2264678      0              6.688295       37.927039    
     31000   3.0134089      2.1707364      0              6.6886426      37.205845    
     31250   3.0274275      2.2378332      0              6.7767571      38.032785    
     31500   2.9985768      2.1513287      0              6.6469976      37.163245    
     31750   3.0065961      2.2160917      0              6.7237838      37.63594     
     32000   3.0041135      2.1555068      0              6.6594768      37.064551    
     32250   3.0490468      2.1251553      0              6.6964922      36.600388    
     32500   2.9605866      2.1206954      0              6.559407       36.713599    
     32750   3.0159004      2.2269294      0              6.7485712      37.794119    
     33000   2.9645951      2.1554389      0              6.6001603      36.783659    
     33250   3.0317138      2.2854877      0              6.8308378      38.415684    
     33500   2.9109439      2.2689424      0              6.6332262      38.285964    
     33750   3.0025458      2.1735056      0              6.6751252      37.477904    
     34000   2.992208       2.2029532      0              6.6890735      37.420174    
     34250   2.9083676      2.1902296      0              6.5506508      37.377371    
     34500   3.0414576      2.2368969      0              6.7968557      37.966936    
     34750   2.9342386      2.1193884      0              6.5185971      36.534031    
     35000   3.0870543      2.1040379      0              6.7323583      36.491283    
     35250   2.9621528      2.1723223      0              6.613382       37.155938    
     35500   2.9611847      2.2788146      0              6.7184227      38.386432    
     35750   2.980223       2.1902052      0              6.658357       37.681317    
     36000   2.9634532      2.0899345      0              6.5329439      36.308265    
     36250   3.0768357      2.1979022      0              6.8109021      37.455225    
     36500   2.9145363      2.1673113      0              6.5369811      36.640465    
     36750   3.0121983      2.1794141      0              6.6955053      37.524705    
     37000   3.0272584      2.1413159      0              6.6799863      36.741843    
     37250   2.9511932      2.250145       0              6.6747732      37.66676     
     37500   2.9919446      2.2385432      0              6.7242688      37.921435    
     37750   2.9639543      2.2264065      0              6.6701671      37.605131    
     38000   2.9499929      2.2664157      0              6.6892444      38.056906    
     38250   2.9885064      2.1519282      0              6.6324989      37.189249    
     38500   3.0374066      2.2358042      0              6.7896894      38.162555    
     38750   2.9575627      2.1453978      0              6.5795756      37.349191    
     39000   3.0302973      2.1778514      0              6.7210778      37.379906    
     39250   2.9650267      2.1537769      0              6.5991453      36.777969    
     39500   3.0368802      2.1752172      0              6.7283133      37.023914    
     39750   3.041249       2.1184752      0              6.6781213      36.621605    
     40000   3.0036019      2.1544406      0              6.6576435      36.94613     
     40250   3.0218705      2.2219256      0              6.7525181      37.979072    
     40500   2.8467519      2.268498       0              6.5365407      38.042312    
     40750   3.0121008      2.2600589      0              6.776004       38.061839    
     41000   2.9695928      2.1550938      0              6.6073081      37.11043     
     41250   3.0825228      2.237182       0              6.8587084      37.860841    
     41500   2.9416997      2.2149112      0              6.6253062      37.447709    
     41750   3.078055       2.2322042      0              6.8470322      38.076934    
     42000   3.0222872      2.089791       0              6.6210082      36.22235     
     42250   3.0099211      2.2712308      0              6.7839078      37.751511    
     42500   3.0239963      2.1761813      0              6.7099609      37.326129    
     42750   3.0064822      2.1318867      0              6.6394079      36.824546    
     43000   3.0848747      2.2133507      0              6.8384034      37.595303    
     43250   2.9407047      2.1441521      0              6.5530554      36.679602    
     43500   2.9379755      2.3256406      0              6.7304519      38.594833    
     43750   3.0078697      2.1877958      0              6.6973974      37.398038    
     44000   2.941822       2.1971923      0              6.6077706      37.752581    
     44250   3.0518932      2.1647593      0              6.7403638      37.196872    
     44500   3.0080883      2.1373016      0              6.6472308      36.966919    
     44750   3.0189534      2.119813       0              6.646032       36.733216    
     45000   3.0068776      2.2436097      0              6.7517237      38.065604    
     45250   2.9115472      2.19606        0              6.5612483      37.402696    
     45500   3.0496484      2.2594602      0              6.8316991      38.427142    
     45750   3.0025946      2.188119       0              6.6898118      37.567088    
     46000   3.0006774      2.1942131      0              6.6930314      37.429569    
     46250   3.0301922      2.1749183      0              6.7179872      37.404422    
     46500   3.0328472      2.1830073      0              6.7300569      37.702128    
     46750   2.9620081      2.162204       0              6.6030467      37.167105    
     47000   2.9909987      2.3057945      0              6.7901018      38.843448    
     47250   2.9921618      2.1323138      0              6.618365       37.022461    
     47500   3.128714       2.2041614      0              6.8949409      37.909135    
     47750   2.9825782      2.1667512      0              6.638434       37.089796    
     48000   3.1144075      2.195412       0              6.8647422      37.648224    
     48250   3.0120034      2.1141344      0              6.6299335      36.649958    
     48500   2.9752712      2.286894       0              6.7476215      38.399948    
     48750   2.9909152      2.1106608      0              6.5948429      36.594788    
     49000   2.9698495      2.2625651      0              6.7151641      37.995259    
     49250   2.9983442      2.1861527      0              6.6814729      37.526932    
     49500   2.9535616      2.2028447      0              6.6310239      37.711037    
     49750   3.0825884      2.1631624      0              6.7847873      37.10953     
     50000   2.9664393      2.0906745      0              6.5381607      36.330487    
Loop time of 18.2082 on 1 procs for 50000 steps with 2048 atoms

Performance: 1186278.333 tau/day, 2746.015 timesteps/s, 5.624 Matom-step/s
99.7% CPU use with 1 MPI tasks x 1 OpenMP threads

MPI task timing breakdown:
Section |  min time  |  avg time  |  max time  |%varavg| %total
---------------------------------------------------------------
Pair    | 6.065      | 6.065      | 6.065      |   0.0 | 33.31
Neigh   | 9.7945     | 9.7945     | 9.7945     |   0.0 | 53.79
Comm    | 0.67704    | 0.67704    | 0.67704    |   0.0 |  3.72
Output  | 0.0075829  | 0.0075829  | 0.0075829  |   0.0 |  0.04
Modify  | 1.2627     | 1.2627     | 1.2627     |   0.0 |  6.94
Other   |            | 0.4013     |            |       |  2.20

Nlocal:           2048 ave        2048 max        2048 min
Histogram: 1 0 0 0 0 0 0 0 0 0
Nghost:           1411 ave        1411 max        1411 min
Histogram: 1 0 0 0 0 0 0 0 0 0
Neighs:          12251 ave       12251 max       12251 min
Histogram: 1 0 0 0 0 0 0 0 0 0

Total # of neighbors = 12251
Ave neighs/atom = 5.9819336
Neighbor list builds = 10750
Dangerous builds = 0

unfix 1
dump           1 all atom ${run_steps} 3dWCA_T${final_temperature}_d${density}_N${run_steps}.lammpstrj   # 修改4：将文件名前缀改为3d
dump           1 all atom 100000 3dWCA_T${final_temperature}_d${density}_N${run_steps}.lammpstrj   
dump           1 all atom 100000 3dWCA_T0.1_d${density}_N${run_steps}.lammpstrj   
dump           1 all atom 100000 3dWCA_T0.1_d1.2_N${run_steps}.lammpstrj   
dump           1 all atom 100000 3dWCA_T0.1_d1.2_N100000.lammpstrj   
dump           2 all dcd ${thermo_time} 3dWCA_T${final_temperature}_d${density}_N${run_steps}.dcd        # 修改4：将文件名前缀改为3d
dump           2 all dcd 250 3dWCA_T${final_temperature}_d${density}_N${run_steps}.dcd        
dump           2 all dcd 250 3dWCA_T0.1_d${density}_N${run_steps}.dcd        
dump           2 all dcd 250 3dWCA_T0.1_d1.2_N${run_steps}.dcd        
dump           2 all dcd 250 3dWCA_T0.1_d1.2_N100000.dcd        
fix 1 all nvt temp ${initial_temperature} ${final_temperature} ${tau}
fix 1 all nvt temp 3 ${final_temperature} ${tau}
fix 1 all nvt temp 3 0.1 ${tau}
fix 1 all nvt temp 3 0.1 0.5

run ${run_steps}
run 100000
Generated 0 of 0 mixed pair_coeff terms from geometric mixing rule
Per MPI rank memory allocation (min/avg/max) = 3.303 | 3.303 | 3.303 Mbytes
   Step          Temp          E_pair         E_mol          TotEng         Press     
     50000   2.9664393      2.0906745      0              6.5381607      36.330487    
     50250   3.0474293      2.2217103      0              6.7906223      37.778547    
     50500   2.9231344      2.2233279      0              6.6058886      37.788372    
     50750   3.0587069      2.2538488      0              6.8396689      38.120541    
     51000   2.9542124      2.1881181      0              6.617273       37.484932    
     51250   2.9692893      2.1943456      0              6.6461047      37.582483    
     51500   2.9985893      2.1994789      0              6.6951666      37.458355    
     51750   2.9383971      2.1221991      0              6.5276426      36.554651    
     52000   3.0132424      2.207858       0              6.7255146      37.511439    
     52250   2.9258936      2.0646603      0              6.4513577      35.757467    
     52500   3.0224001      2.150681       0              6.6820675      36.402814    
     52750   2.9007951      2.0887865      0              6.4378545      35.951386    
     53000   2.9981854      2.103267       0              6.5983491      36.722773    
     53250   2.8577662      2.0627419      0              6.3472981      35.827609    
     53500   2.8962258      2.183821       0              6.5260384      37.119645    
     53750   2.8858595      2.0908723      0              6.4175478      36.308131    
     54000   2.8668683      2.0800511      0              6.3782538      36.10171     
     54250   2.8445866      2.1183991      0              6.3831957      36.254106    
     54500   2.8520509      2.1484208      0              6.4244082      36.69946     
     54750   2.8243834      2.0930172      0              6.3275237      35.883897    
     55000   2.8249042      2.1352249      0              6.3705122      36.472681    
     55250   2.8137712      2.0682642      0              6.2868602      35.64903     
     55500   2.8005788      2.1280212      0              6.3268382      36.700418    
     55750   2.841813       2.0290576      0              6.2896957      35.610346    
     56000   2.8385194      2.0141791      0              6.2698792      35.452299    
     56250   2.8198009      2.0332846      0              6.2609206      35.329408    
     56500   2.8041321      2.0219639      0              6.2261083      35.153358    
     56750   2.7733452      2.0913243      0              6.2493108      36.06339     
     57000   2.7571949      2.0097652      0              6.1435382      35.310167    
     57250   2.7817371      2.0235343      0              6.1941026      35.082754    
     57500   2.7803869      2.0061982      0              6.1747421      35.086431    
     57750   2.7798681      1.9988359      0              6.166602       34.710084    
     58000   2.7914865      2.0250362      0              6.2102214      35.382871    
     58250   2.7363116      1.963189       0              6.0656522      34.407265    
     58500   2.8490437      2.0198554      0              6.2913342      35.160931    
     58750   2.74239        1.9129101      0              6.0244866      34.150951    
     59000   2.7572262      2.0649966      0              6.1988165      35.511587    
     59250   2.6806836      1.9366616      0              5.9557236      34.078831    
     59500   2.7887333      1.9504466      0              6.1315041      34.335661    
     59750   2.6464849      1.9045434      0              5.8723324      33.935678    
     60000   2.7654597      1.945933       0              6.0920972      34.463357    
     60250   2.6065967      1.9220532      0              5.8300392      33.853499    
     60500   2.7592045      1.8767706      0              6.0135564      33.775183    
     60750   2.6312973      1.8301193      0              5.7751381      32.702388    
     61000   2.7142557      1.8635662      0              5.9329617      33.578635    
     61250   2.646379       1.9224283      0              5.8900585      34.242121    
     61500   2.6563184      1.8451658      0              5.8276979      33.17775     
     61750   2.6548183      1.9123497      0              5.8926327      33.882857    
     62000   2.534228       1.8929324      0              5.6924183      33.387988    
     62250   2.7119136      1.8709885      0              5.9368726      33.795444    
     62500   2.5460041      1.9148833      0              5.7320246      33.996085    
     62750   2.6339812      1.861563       0              5.8106056      33.570515    
     63000   2.6135576      1.8911113      0              5.8095334      33.714653    
     63250   2.5328707      1.8959147      0              5.6933657      33.624127    
     63500   2.6608181      1.8626371      0              5.8519153      33.204407    
     63750   2.5855854      1.8526574      0              5.7291418      32.86158     
     64000   2.63919        1.8062852      0              5.7631373      32.575967    
     64250   2.5961501      1.7853211      0              5.6776447      32.567346    
     64500   2.5767115      1.8130525      0              5.6762325      32.562064    
     64750   2.5724638      1.8384998      0              5.6953113      32.978221    
     65000   2.5550296      1.8228324      0              5.6535055      32.585771    
     65250   2.5219861      1.8281277      0              5.6092597      32.783047    
     65500   2.5409406      1.8164545      0              5.6260044      32.604539    
     65750   2.50085        1.8357515      0              5.5851948      33.027002    
     66000   2.5323747      1.8117382      0              5.6084455      32.844991    
     66250   2.4986593      1.7659318      0              5.5120907      31.86753     
     66500   2.558409       1.7229642      0              5.5587039      31.535809    
     66750   2.5037247      1.7782847      0              5.532038       31.935503    
     67000   2.4237535      1.6835782      0              5.3174332      31.128094    
     67250   2.4888285      1.8238846      0              5.5553045      32.832258    
     67500   2.4340829      1.7064185      0              5.3557601      31.410537    
     67750   2.5054299      1.7358344      0              5.4921443      31.516424    
     68000   2.4872523      1.6838112      0              5.412868       31.043787    
     68250   2.4080523      1.7138575      0              5.3241722      31.509722    
     68500   2.4672208      1.7630136      0              5.4620377      32.096619    
     68750   2.4014469      1.7020811      0              5.3024925      31.162688    
     69000   2.5083493      1.7090293      0              5.469716       31.199784    
     69250   2.4259307      1.7035457      0              5.340665       31.16627     
     69500   2.5681784      1.748166       0              5.5985526      31.78952     
     69750   2.4137723      1.6930617      0              5.3119521      30.987934    
     70000   2.4603057      1.6725082      0              5.3611648      31.028238    
     70250   2.4075609      1.6497572      0              5.2593352      30.515086    
     70500   2.4174082      1.6855692      0              5.3099111      31.107248    
     70750   2.3938891      1.7022298      0              5.2913101      30.987612    
     71000   2.3709947      1.6810743      0              5.2358298      30.979016    
     71250   2.4330365      1.5985793      0              5.2463521      30.011844    
     71500   2.3635755      1.6653603      0              5.2089924      30.530897    
     71750   2.3766403      1.6379253      0              5.2011451      30.315411    
     72000   2.3280197      1.6554405      0              5.145765       30.536785    
     72250   2.3438342      1.6833515      0              5.1973862      30.995984    
     72500   2.2842589      1.6479802      0              5.0726955      30.269885    
     72750   2.3930371      1.6471045      0              5.2349075      30.240667    
     73000   2.345949       1.5628165      0              5.0800218      29.503904    
     73250   2.3600385      1.5878469      0              5.1261761      29.489553    
     73500   2.353144       1.5821482      0              5.1101407      29.612602    
     73750   2.3380018      1.529097       0              5.0343873      29.264594    
     74000   2.3171986      1.6007917      0              5.0748925      29.811222    
     74250   2.283985       1.6160783      0              5.040383       29.990902    
     74500   2.2621383      1.5850147      0              4.9765654      29.470893    
     74750   2.2760789      1.5552146      0              4.967666       29.416455    
     75000   2.3122987      1.5346563      0              5.0014108      28.857743    
     75250   2.2253213      1.4987265      0              4.8350785      28.431758    
     75500   2.2229021      1.6518953      0              4.9846203      30.2489      
     75750   2.2162725      1.4277322      0              4.7505177      27.780898    
     76000   2.2587376      1.5785979      0              4.9650499      29.359955    
     76250   2.2063516      1.4992641      0              4.8071756      28.712012    
     76500   2.2925508      1.5718901      0              5.0090371      29.383439    
     76750   2.2207009      1.5060876      0              4.8355125      28.690919    
     77000   2.2482495      1.525376       0              4.8961036      29.053973    
     77250   2.1759959      1.5586922      0              4.8210922      29.270511    
     77500   2.1842898      1.5514802      0              4.826315       28.998428    
     77750   2.2762802      1.5292995      0              4.9420526      28.92069     
     78000   2.1773402      1.4634577      0              4.7278732      27.795001    
     78250   2.1804592      1.6065749      0              4.8756666      29.789403    
     78500   2.1552648      1.4395595      0              4.6708781      27.681233    
     78750   2.1921145      1.5356491      0              4.8222152      28.819183    
     79000   2.0994958      1.4875344      0              4.6352404      28.247035    
     79250   2.1786377      1.4843278      0              4.7506886      28.396602    
     79500   2.1204224      1.4044942      0              4.5835748      27.262647    
     79750   2.1777777      1.4478581      0              4.7129297      27.744792    
     80000   2.0328531      1.4700368      0              4.5178275      27.796078    
     80250   2.1439171      1.441606       0              4.6559114      27.879241    
     80500   2.0515097      1.3812749      0              4.4570369      26.916438    
     80750   2.149982       1.3681203      0              4.5915186      26.949621    
     81000   2.0820283      1.4489461      0              4.5704636      27.638062    
     81250   2.0762643      1.3788699      0              4.4917456      26.852709    
     81500   2.0914282      1.444044       0              4.5796544      27.693269    
     81750   2.0560854      1.4065992      0              4.4892214      27.398778    
     82000   2.0864853      1.4649399      0              4.5931396      27.994776    
     82250   2.0465855      1.3872516      0              4.4556309      27.011248    
     82500   2.1371084      1.4333861      0              4.6374835      27.649964    
     82750   2.0453573      1.3580313      0              4.4245692      26.682897    
     83000   2.0584082      1.430004       0              4.5161087      27.498974    
     83250   2.000855       1.3358167      0              4.3356337      26.241483    
     83500   2.0631368      1.3767809      0              4.4699751      26.634375    
     83750   2.0260553      1.3329293      0              4.3705284      26.199144    
     84000   2.0097616      1.3026475      0              4.3158179      26.036438    
     84250   2.0507155      1.3658518      0              4.4404231      26.839791    
     84500   2.0079336      1.2833637      0              4.2937934      25.494349    
     84750   2.0083535      1.3546694      0              4.3657287      26.399652    
     85000   1.9667326      1.2672255      0              4.215884       25.372988    
     85250   1.992577       1.3674396      0              4.3548458      26.677237    
     85500   1.9882499      1.2807197      0              4.2616383      25.601392    
     85750   1.9454951      1.3281277      0              4.2449454      26.256807    
     86000   1.9360061      1.2896228      0              4.192214       25.435557    
     86250   1.961301       1.3366125      0              4.2771275      26.296514    
     86500   1.9351094      1.2721743      0              4.173421       25.621356    
     86750   1.9316613      1.3224161      0              4.2184932      26.082595    
     87000   1.9373143      1.2297271      0              4.1342796      24.801477    
     87250   1.9636558      1.2443227      0              4.1883682      24.965381    
     87500   1.8458516      1.3605421      0              4.1279676      26.065264    
     87750   1.8844678      1.3041036      0              4.129425       25.690352    
     88000   1.8634902      1.2021859      0              3.9960564      24.39369     
     88250   1.914893       1.2853918      0              4.1563288      25.475795    
     88500   1.8425991      1.2671441      0              4.0296932      25.504942    
     88750   1.8575828      1.2975523      0              4.082566       25.715678    
     89000   1.8311389      1.1976732      0              3.9430403      24.322026    
     89250   1.9178712      1.2266494      0              4.1020514      24.685301    
     89500   1.8492313      1.2137076      0              3.9862001      24.188734    
     89750   1.9001093      1.2370213      0              4.0857936      24.791154    
     90000   1.8206798      1.2360116      0              3.9656978      24.602611    
     90250   1.8623086      1.1830805      0              3.9751794      24.330945    
     90500   1.83309        1.2233761      0              3.9716686      24.656207    
     90750   1.8374192      1.1631357      0              3.9179188      23.718813    
     91000   1.8317674      1.2464167      0              3.9927261      24.859514    
     91250   1.7865379      1.1811397      0              3.859638       23.958999    
     91500   1.8516024      1.1943152      0              3.9703627      24.5389      
     91750   1.7795115      1.1337345      0              3.8016984      23.372538    
     92000   1.8252444      1.1706693      0              3.907199       23.869848    
     92250   1.7492236      1.1675778      0              3.790132       23.819427    
     92500   1.7732181      1.1851237      0              3.8436521      23.978841    
     92750   1.7619468      1.1042138      0              3.7458434      23.080877    
     93000   1.7722187      1.1404435      0              3.7974736      23.565717    
     93250   1.7166889      1.1861507      0              3.7599268      23.804328    
     93500   1.7065341      1.1334029      0              3.6919542      23.601674    
     93750   1.7311529      1.1276673      0              3.7231287      23.286484    
     94000   1.7189795      1.1238007      0              3.7010109      23.197953    
     94250   1.6553573      1.1191729      0              3.6009964      22.859586    
     94500   1.7208491      1.1453182      0              3.7253314      23.442748    
     94750   1.6707618      1.1154065      0              3.6203255      22.857536    
     95000   1.718302       1.075132       0              3.6513265      22.454182    
     95250   1.6248683      1.0817419      0              3.5178543      22.709007    
     95500   1.7049978      1.0900634      0              3.6463113      22.87557     
     95750   1.6818577      1.0212425      0              3.5427972      21.870018    
     96000   1.6799089      1.1516378      0              3.6702707      23.451961    
     96250   1.6400072      1.0707952      0              3.5296049      22.373886    
     96500   1.6339954      1.1465123      0              3.5963087      23.431161    
     96750   1.6547165      1.066167       0              3.5470299      22.300333    
     97000   1.6232575      1.0511364      0              3.4848337      22.241065    
     97250   1.6621878      1.0850747      0              3.577139       22.622009    
     97500   1.5995321      1.0258519      0              3.4239785      21.67444     
     97750   1.6670458      1.042848       0              3.5421957      22.013865    
     98000   1.5953285      1.0232925      0              3.4151168      21.862834    
     98250   1.6433612      1.0056335      0              3.4694717      21.449013    
     98500   1.5592393      1.0179752      0              3.3556921      21.61724     
     98750   1.5915264      1.050329       0              3.436453       22.08053     
     99000   1.5455336      0.98422834     0              3.3013968      21.044724    
     99250   1.5911684      1.0336705      0              3.4192576      21.782645    
     99500   1.545414       1.0023993      0              3.3193884      21.329465    
     99750   1.5331878      1.0471594      0              3.3458182      21.827756    
    100000   1.5445844      0.92439632     0              3.2401417      20.304677    
    100250   1.5564175      1.039553       0              3.3730393      21.885921    
    100500   1.5235203      0.98132682     0              3.2654914      20.883808    
    100750   1.532683       0.9878014      0              3.2857033      21.150265    
    101000   1.5508465      0.94683665     0              3.2719705      20.639248    
    101250   1.4954782      0.97431226     0              3.2164342      21.005741    
    101500   1.5449794      0.984876       0              3.3012135      21.079785    
    101750   1.5030082      0.92505703     0              3.1784685      20.405209    
    102000   1.5426574      0.93504431     0              3.2479005      20.365277    
    102250   1.4430278      0.95011397     0              3.1135987      20.700113    
    102500   1.5238863      0.94365033     0              3.2283636      20.445304    
    102750   1.4318166      0.94318907     0              3.0898653      20.573987    
    103000   1.457667       0.96715178     0              3.1525847      20.717817    
    103250   1.4297599      0.92769016     0              3.0712828      20.268773    
    103500   1.4485103      0.93263892     0              3.1043435      20.46268     
    103750   1.4187106      0.91292758     0              3.0399544      19.790446    
    104000   1.4228347      0.93523566     0              3.0684456      20.436416    
    104250   1.4212037      0.89618979     0              3.0269544      19.669978    
    104500   1.4151246      0.89309021     0              3.0147406      19.6103      
    104750   1.4039737      0.84581319     0              2.9507455      19.171862    
    105000   1.4385849      0.87400018     0              3.0308239      19.650599    
    105250   1.3826542      0.88831041     0              2.961279       19.495155    
    105500   1.3731524      0.86500811     0              2.923731       19.210171    
    105750   1.3623384      0.9117142      0              2.954224       19.877225    
    106000   1.39569        0.83072513     0              2.923238       18.884947    
    106250   1.3742962      0.84524246     0              2.9056802      18.894391    
    106500   1.347669       0.81416991     0              2.8346863      18.724374    
    106750   1.3652041      0.88870861     0              2.9355149      19.652486    
    107000   1.3456282      0.8205602      0              2.8380169      18.598176    
    107250   1.3551911      0.81279893     0              2.844593       18.373201    
    107500   1.2924637      0.8216946      0              2.7594435      18.579875    
    107750   1.3376983      0.86567374     0              2.8712414      19.217829    
    108000   1.334135       0.7823525      0              2.7825779      18.018929    
    108250   1.2909336      0.83278972     0              2.7682446      18.659363    
    108500   1.2915176      0.7950703      0              2.7314008      18.113314    
    108750   1.3206026      0.79674225     0              2.7766788      18.290414    
    109000   1.2699192      0.80595933     0              2.709908       18.287842    
    109250   1.2736965      0.79962761     0              2.7092394      18.325407    
    109500   1.2627023      0.79988798     0              2.6930166      18.238113    
    109750   1.2676253      0.73901702     0              2.6395265      17.407298    
    110000   1.2722473      0.7560618      0              2.6635009      17.546372    
    110250   1.2216706      0.78359108     0              2.6152022      17.815836    
    110500   1.2584209      0.73471909     0              2.6214287      17.347769    
    110750   1.2567756      0.71484127     0              2.5990842      16.825611    
    111000   1.2057777      0.72933264     0              2.537116       17.045461    
    111250   1.259906       0.71863777     0              2.607574       17.101142    
    111500   1.1809149      0.72724023     0              2.4977477      17.040111    
    111750   1.2120896      0.74066381     0              2.5579105      17.406023    
    112000   1.1536491      0.71232208     0              2.4419508      16.703088    
    112250   1.2232264      0.68869626     0              2.5226399      16.623624    
    112500   1.1884027      0.68110142     0              2.462835       16.236369    
    112750   1.1923838      0.69754286     0              2.4852453      16.612281    
    113000   1.1790002      0.68963278     0              2.4572695      16.543973    
    113250   1.1694922      0.69282458     0              2.4462063      16.649251    
    113500   1.1494137      0.68163101     0              2.4049097      16.386169    
    113750   1.1573629      0.66673364     0              2.4019303      16.126       
    114000   1.1504705      0.67442554     0              2.3992887      16.22216     
    114250   1.1368521      0.66401694     0              2.3684625      16.137316    
    114500   1.105749       0.71014478     0              2.3679584      16.778126    
    114750   1.1163126      0.67394723     0              2.3475985      16.218246    
    115000   1.134488       0.64116181     0              2.3420629      15.701048    
    115250   1.1116721      0.65694508     0              2.323639       16.009471    
    115500   1.1040618      0.62812224     0              2.2834064      15.490995    
    115750   1.0829108      0.6745548      0              2.2981278      15.949888    
    116000   1.0787011      0.59663466     0              2.2138963      15.039105    
    116250   1.0984446      0.63458629     0              2.2814487      15.552655    
    116500   1.055517       0.62751003     0              2.2100124      15.273548    
    116750   1.0743947      0.61988949     0              2.2306947      15.150566    
    117000   1.0350371      0.57917482     0              2.1309725      14.523649    
    117250   1.0728852      0.61735254     0              2.2258945      15.255228    
    117500   1.0408017      0.57102464     0              2.1314649      14.480321    
    117750   1.0555907      0.58505219     0              2.1676651      14.587279    
    118000   1.0124855      0.56225859     0              2.0802453      14.425403    
    118250   1.0344591      0.60157871     0              2.1525097      14.969049    
    118500   0.99194864     0.61276725     0              2.0999637      15.095951    
    118750   0.99995643     0.58177511     0              2.0809774      14.603088    
    119000   1.0023766      0.59042672     0              2.0932575      14.753036    
    119250   0.97864306     0.55758646     0              2.0248343      14.155978    
    119500   1.0005331      0.59094663     0              2.0910135      14.717353    
    119750   0.96818459     0.56883092     0              2.0203987      14.355401    
    120000   0.95467736     0.55641806     0              1.9877349      14.226295    
    120250   0.98195943     0.56129528     0              2.0335152      14.369393    
    120500   0.95457158     0.51461467     0              1.9457729      13.369384    
    120750   0.9673015      0.54596313     0              1.9962069      13.98307     
    121000   0.91778693     0.53802243     0              1.9140306      13.574681    
    121250   0.96571251     0.53012202     0              1.9779835      13.731061    
    121500   0.92357302     0.50273431     0              1.8874174      13.246322    
    121750   0.92110081     0.5545534      0              1.93553        14.143013    
    122000   0.90165136     0.50411801     0              1.8559347      13.215276    
    122250   0.93259131     0.5029622      0              1.9011661      13.313826    
    122500   0.88819329     0.51192969     0              1.8435691      13.333212    
    122750   0.89447127     0.49255065     0              1.8336024      13.077852    
    123000   0.87834115     0.50443113     0              1.8212995      13.100949    
    123250   0.85695295     0.48910892     0              1.7739107      12.726119    
    123500   0.87779768     0.48640043     0              1.802454       12.849467    
    123750   0.86236876     0.48602032     0              1.7789418      12.919544    
    124000   0.85691774     0.47232694     0              1.7570759      12.7561      
    124250   0.85876334     0.45713296     0              1.744649       12.552374    
    124500   0.81065445     0.44431394     0              1.6597019      12.189348    
    124750   0.83366544     0.47052695     0              1.7204145      12.625871    
    125000   0.81699524     0.44495039     0              1.6698449      12.051331    
    125250   0.81959541     0.46850269     0              1.6972955      12.623066    
    125500   0.80471943     0.44642533     0              1.6529151      12.186308    
    125750   0.82266291     0.42549337     0              1.6588852      11.97437     
    126000   0.79664887     0.45685381     0              1.6512436      12.435408    
    126250   0.79815797     0.40817168     0              1.604824       11.471886    
    126500   0.78788216     0.43258495     0              1.6138311      12.048589    
    126750   0.7617054      0.4141939      0              1.5561941      11.567455    
    127000   0.79962432     0.42493776     0              1.6237886      11.736156    
    127250   0.78187864     0.38889519     0              1.5611405      11.101891    
    127500   0.75502704     0.38809952     0              1.5200871      11.083392    
    127750   0.76466025     0.41358735     0              1.5600177      11.537817    
    128000   0.72019684     0.41307406     0              1.4928418      11.474409    
    128250   0.74180568     0.40828444     0              1.5204496      11.348485    
    128500   0.70745818     0.390358       0              1.4510271      11.097587    
    128750   0.75191821     0.38635075     0              1.5136773      11.052843    
    129000   0.70252388     0.37711829     0              1.4303896      10.711603    
    129250   0.7044697      0.38268365     0              1.4388722      11.015193    
    129500   0.68410005     0.35604892     0              1.3816979      10.371059    
    129750   0.71296456     0.3785025      0              1.4474272      10.959765    
    130000   0.69396046     0.34611067     0              1.3865431      10.196759    
    130250   0.67203956     0.34009629     0              1.3476634      10.097837    
    130500   0.68494003     0.36458616     0              1.3914945      10.576153    
    130750   0.65411695     0.34616519     0              1.3268615      10.109231    
    131000   0.64344461     0.35084141     0              1.3155371      10.387263    
    131250   0.64817127     0.32136798     0              1.2931501      9.5727539    
    131500   0.65678731     0.32210004     0              1.3068         9.5717594    
    131750   0.62956621     0.31733786     0              1.2612261      9.6850833    
    132000   0.62191477     0.31093704     0              1.2433537      9.5721879    
    132250   0.60950156     0.33981787     0              1.2536238      10.005848    
    132500   0.60121723     0.31315799     0              1.2145435      9.4924331    
    132750   0.6036843      0.30667842     0              1.2117627      9.4775901    
    133000   0.58955895     0.30435944     0              1.1882661      9.2806412    
    133250   0.5823171      0.29944115     0              1.1724903      9.2055786    
    133500   0.56431929     0.32339619     0              1.1694618      9.7129889    
    133750   0.56506216     0.28012595     0              1.1273053      8.675687     
    134000   0.58036534     0.27960112     0              1.1497241      8.7845245    
    134250   0.54847989     0.28217675     0              1.1044949      8.7427818    
    134500   0.54683059     0.29121719     0              1.1110626      9.1542181    
    134750   0.53129261     0.27222745     0              1.0687772      8.6614376    
    135000   0.54376746     0.27218612     0              1.087439       8.5815438    
    135250   0.51499822     0.27366845     0              1.0457886      8.6627283    
    135500   0.52547568     0.25477632     0              1.042605       8.405848     
    135750   0.50823391     0.24841184     0              1.0103905      8.0963381    
    136000   0.52817672     0.23343592     0              1.0253142      7.8421526    
    136250   0.50695434     0.23362462     0              0.99368482     7.86103      
    136500   0.48395566     0.24595333     0              0.97153236     8.1309936    
    136750   0.49291257     0.22373538     0              0.96274321     7.5210541    
    137000   0.47470632     0.23345475     0              0.94516655     7.8241097    
    137250   0.47495585     0.23238992     0              0.94447583     7.7585417    
    137500   0.46875235     0.20380548     0              0.90659069     7.1450674    
    137750   0.46190873     0.2145092      0              0.90703399     7.2705565    
    138000   0.43668119     0.21756381     0              0.87226577     7.301263     
    138250   0.45566804     0.20963522     0              0.89280355     7.2015782    
    138500   0.43168077     0.21030513     0              0.85751011     7.2429096    
    138750   0.42536426     0.19544123     0              0.83317607     6.9323441    
    139000   0.42554942     0.18675363     0              0.82476608     6.6937962    
    139250   0.41025829     0.18733386     0              0.80242081     6.6496064    
    139500   0.41224227     0.19166607     0              0.80972754     6.8467537    
    139750   0.3929746      0.18311589     0              0.77228996     6.600411     
    140000   0.38872274     0.17894897     0              0.76174837     6.535231     
    140250   0.37046205     0.18652061     0              0.74194235     6.6609567    
    140500   0.37907225     0.16930157     0              0.7376323      6.2291579    
    140750   0.37736147     0.15621459     0              0.7219804      5.9153875    
    141000   0.36222253     0.15604448     0              0.69911297     5.9837407    
    141250   0.33763639     0.16443472     0              0.67064201     6.1076584    
    141500   0.35902998     0.15657914     0              0.69486115     5.8725935    
    141750   0.33899775     0.15091777     0              0.65916611     5.8258603    
    142000   0.32867825     0.14403411     0              0.63681074     5.5412427    
    142250   0.32345548     0.13799445     0              0.62294076     5.4467695    
    142500   0.31912006     0.13365187     0              0.61209823     5.4325473    
    142750   0.31128186     0.12976312     0              0.59645792     5.2094957    
    143000   0.310061       0.13187938     0              0.59674378     5.2504237    
    143250   0.29021125     0.12881135     0              0.56391567     5.1644064    
    143500   0.28603938     0.12232164     0              0.55117121     5.0480348    
    143750   0.27839928     0.11475629     0              0.5321513      4.7846274    
    144000   0.28207216     0.11452291     0              0.53742455     4.940383     
    144250   0.26516013     0.11092764     0              0.50847362     4.6766266    
    144500   0.26173473     0.094620157    0              0.48703055     4.2386198    
    144750   0.24807663     0.10589258     0              0.47782583     4.5265843    
    145000   0.24576056     0.10442041     0              0.47288125     4.4823498    
    145250   0.23721375     0.09284589     0              0.44849278     4.1666976    
    145500   0.22691263     0.090063018    0              0.43026576     4.1141296    
    145750   0.22440401     0.088617634    0              0.42505928     4.0469899    
    146000   0.22188272     0.083915574    0              0.41657715     3.8611071    
    146250   0.20815883     0.077090795    0              0.38917658     3.6478493    
    146500   0.20191839     0.073480533    0              0.37621023     3.511278     
    146750   0.19302511     0.069752283    0              0.35914857     3.4888148    
    147000   0.18922459     0.063959111    0              0.34765741     3.2309771    
    147250   0.17654883     0.067021079    0              0.33171501     3.3550424    
    147500   0.1693322      0.060812447    0              0.31468672     3.1280847    
    147750   0.17339724     0.058343609    0              0.31831247     3.0445182    
    148000   0.15876925     0.054222579    0              0.29226017     2.9175455    
    148250   0.1505305      0.051566221    0              0.27725172     2.81927      
    148500   0.14257438     0.048152452    0              0.2619096      2.6803805    
    148750   0.14103035     0.041838066    0              0.2532803      2.4281876    
    149000   0.13281211     0.038525853    0              0.23764674     2.313463     
    149250   0.12441255     0.038324817    0              0.22485252     2.2420876    
    149500   0.11640428     0.036590959    0              0.21111212     2.2283858    
    149750   0.10923427     0.032624775    0              0.19639618     2.040317     
    150000   0.10098409     0.031235704    0              0.18263788     2.0084097    
Loop time of 28.2843 on 1 procs for 100000 steps with 2048 atoms

Performance: 1527351.070 tau/day, 3535.535 timesteps/s, 7.241 Matom-step/s
98.2% CPU use with 1 MPI tasks x 1 OpenMP threads

MPI task timing breakdown:
Section |  min time  |  avg time  |  max time  |%varavg| %total
---------------------------------------------------------------
Pair    | 10.522     | 10.522     | 10.522     |   0.0 | 37.20
Neigh   | 12.973     | 12.973     | 12.973     |   0.0 | 45.87
Comm    | 1.0971     | 1.0971     | 1.0971     |   0.0 |  3.88
Output  | 0.44629    | 0.44629    | 0.44629    |   0.0 |  1.58
Modify  | 2.5242     | 2.5242     | 2.5242     |   0.0 |  8.92
Other   |            | 0.7225     |            |       |  2.55

Nlocal:           2048 ave        2048 max        2048 min
Histogram: 1 0 0 0 0 0 0 0 0 0
Nghost:           1381 ave        1381 max        1381 min
Histogram: 1 0 0 0 0 0 0 0 0 0
Neighs:          12292 ave       12292 max       12292 min
Histogram: 1 0 0 0 0 0 0 0 0 0

Total # of neighbors = 12292
Ave neighs/atom = 6.0019531
Neighbor list builds = 15136
Dangerous builds = 0
Total wall time: 0:00:46
