#     Step Nr.          Time[fs]        Kin.[a.u.]          Temp[K]            Pot.[a.u.]        Cons Qty[a.u.]        UsedTime[s]
         0            0.000000         0.275037913       300.000000000     -1103.075021217     -1102.799983305         0.000000000
         1            0.500000         0.279053523       304.380062273     -1103.080241628     -1102.800068341        46.788588569
         2            1.000000         0.272812454       297.572561847     -1103.091275634     -1102.800312446         9.150387373
         3            1.500000         0.285217298       311.103253091     -1103.107482577     -1102.800675347         9.139133159
         4            2.000000         0.286598969       312.610323477     -1103.120239672     -1102.800883823         9.137602150
         5            2.500000         0.304630873       332.278779280     -1103.131336337     -1102.801020627         9.184616618
         6            3.000000         0.333043894       363.270530282     -1103.137315027     -1102.801041952         9.182682935
         7            3.500000         0.331062490       361.109295880     -1103.137937936     -1102.800900896         9.136573080
         8            4.000000         0.320479260       349.565545184     -1103.134693277     -1102.800682943         9.143038899
         9            4.500000         0.317117153       345.898297849     -1103.130822322     -1102.800524727         8.338215221
        10            5.000000         0.313488816       341.940657604     -1103.129027612     -1102.800447534        11.214046836
        11            5.500000         0.331724688       361.831594247     -1103.133134743     -1102.800526847         8.344940431
        12            6.000000         0.331824820       361.940813658     -1103.137537558     -1102.800635649         8.255689051
        13            6.500000         0.324580924       354.039471301     -1103.141896309     -1102.800703601         8.356332310
        14            7.000000         0.315919174       344.591592514     -1103.143795954     -1102.800728546         8.328567334
        15            7.500000         0.332018868       362.152473825     -1103.142788378     -1102.800697383         8.292102460
        16            8.000000         0.335481479       365.929346330     -1103.143284854     -1102.800722606         9.178808920
        17            8.500000         0.314069796       342.574367064     -1103.141119960     -1102.800714997         8.330066670
        18            9.000000         0.299931184       327.152553203     -1103.138973056     -1102.800707619         8.328592546
        19            9.500000         0.296470938       323.378259206     -1103.134550000     -1102.800611128         8.351603787
        20           10.000000         0.295013312       321.788341308     -1103.132322803     -1102.800540342        10.668731108
        21           10.500000         0.303012794       330.513846238     -1103.132181918     -1102.800475363         9.123861454
        22           11.000000         0.301647351       329.024476967     -1103.132829717     -1102.800446938         8.318811148
        23           11.500000         0.305659890       333.401188295     -1103.135463464     -1102.800500898         8.361764114
        24           12.000000         0.298987884       326.123640238     -1103.138522584     -1102.800540048         8.307680916
        25           12.500000         0.285399678       311.302185648     -1103.139864176     -1102.800544771         8.335996509
        26           13.000000         0.277601451       302.796202272     -1103.139675076     -1102.800561204         8.344878104
        27           13.500000         0.291590135       318.054480495     -1103.139502045     -1102.800604661         8.331888970
        28           14.000000         0.276096951       301.155155097     -1103.140297299     -1102.800662950         8.302939482
        29           14.500000         0.279550837       304.922511174     -1103.142596855     -1102.800692158         8.315399580
        30           15.000000         0.294563585       321.297796994     -1103.142840774     -1102.800626612        11.279572617
        31           15.500000         0.304631720       332.279703713     -1103.142211313     -1102.800507400         8.352071408
        32           16.000000         0.303090533       330.598640108     -1103.143167915     -1102.800518474         8.342760909
        33           16.500000         0.285304646       311.198529188     -1103.144429244     -1102.800595057         8.314813126
        34           17.000000         0.297654914       324.669691364     -1103.148216259     -1102.800737113         8.298136160
        35           17.500000         0.293314791       319.935664074     -1103.150026848     -1102.800799194         8.346201722
        36           18.000000         0.293612371       320.260252726     -1103.152237090     -1102.800856688         8.335948136
        37           18.500000         0.309008641       337.053868404     -1103.151433432     -1102.800828198         8.324007463
        38           19.000000         0.281223918       306.747439728     -1103.147065453     -1102.800717924         8.322893523
        39           19.500000         0.285035952       310.905448315     -1103.145049998     -1102.800619031         8.316687766
        40           20.000000         0.281499128       307.047626961     -1103.149358230     -1102.800703784        11.437732879
        41           20.500000         0.305091835       332.781577510     -1103.156865151     -1102.800869207         8.308041774
        42           21.000000         0.309999425       338.134574337     -1103.163354387     -1102.801046899         8.319320917
        43           21.500000         0.303475561       331.018613121     -1103.166498233     -1102.801113819         8.371163826
        44           22.000000         0.287510621       313.604715411     -1103.167876491     -1102.801103371         8.327236775
        45           22.500000         0.291610453       318.076642454     -1103.167054498     -1102.801035091         8.308102179
        46           23.000000         0.284133912       309.921540880     -1103.167634684     -1102.801029302         8.339241490
        47           23.500000         0.281560400       307.114460006     -1103.171109264     -1102.801079283         8.330833659
        48           24.000000         0.295555289       322.379506641     -1103.175112093     -1102.801132798         8.331521694
        49           24.500000         0.297564904       324.571512668     -1103.179465945     -1102.801163906         8.301577408
        50           25.000000         0.297388014       324.378567634     -1103.182486508     -1102.801197053        10.840471007
        51           25.500000         0.290070433       316.396852392     -1103.184106398     -1102.801192690         8.303291850
        52           26.000000         0.281285945       306.815095822     -1103.187663304     -1102.801266777         8.322977662
        53           26.500000         0.293061295       319.659161414     -1103.188991355     -1102.801306666         8.321967609
        54           27.000000         0.295520323       322.341367284     -1103.190103624     -1102.801302856         8.315504115
        55           27.500000         0.285264460       311.154695433     -1103.190461095     -1102.801241975         8.306543089
        56           28.000000         0.261289914       285.004250384     -1103.191756178     -1102.801204752         8.348710589
        57           28.500000         0.279293905       304.642261205     -1103.193005291     -1102.801229797         8.353385706
        58           29.000000         0.277787106       302.998706522     -1103.190300134     -1102.801164358         8.335960023
        59           29.500000         0.283295702       309.007256259     -1103.187790247     -1102.801100053         8.350066245
        60           30.000000         0.278320417       303.580420813     -1103.186612741     -1102.801052736        10.849596154
        61           30.500000         0.288115519       314.264513215     -1103.189592049     -1102.801113787         8.254380662
        62           31.000000         0.299152463       326.303155930     -1103.190727664     -1102.801111090         8.269167524
        63           31.500000         0.306611515       334.439182403     -1103.190684033     -1102.801096380         8.364275731
        64           32.000000         0.309706385       337.814938539     -1103.189670208     -1102.801065543         8.318238754
        65           32.500000         0.309916566       338.044195270     -1103.187188993     -1102.801033619         8.324346442
        66           33.000000         0.311254767       339.503849665     -1103.181639638     -1102.800888790         8.298996836
        67           33.500000         0.318040763       346.905733933     -1103.179954061     -1102.800807468         8.322550476
        68           34.000000         0.325506402       355.048945152     -1103.181768170     -1102.800862758         7.495486300
        69           34.500000         0.333231898       363.475597134     -1103.185427351     -1102.800931022         7.484478276
        70           35.000000         0.342868465       373.986766410     -1103.187742875     -1102.800927283        10.709845915
        71           35.500000         0.335128361       365.544180759     -1103.188571756     -1102.800903452         8.316024743
        72           36.000000         0.331072623       361.120348377     -1103.191176484     -1102.800938897         8.308852293
        73           36.500000         0.328186205       357.971963070     -1103.191549522     -1102.800941453         8.314218055
        74           37.000000         0.304698583       332.352634707     -1103.191402279     -1102.800949580         8.320996866
        75           37.500000         0.317750768       346.589419170     -1103.192633753     -1102.800992481         8.293994494
        76           38.000000         0.309163205       337.222460268     -1103.191631903     -1102.800936790         8.337048493
        77           38.500000         0.290971472       317.379669247     -1103.190114658     -1102.800833231         8.326970149
        78           39.000000         0.296091261       322.964123461     -1103.189545766     -1102.800761753         8.329018869
        79           39.500000         0.296158235       323.037175241     -1103.190062139     -1102.800731053         8.302052919
        80           40.000000         0.287223332       313.291352076     -1103.191278159     -1102.800731075        10.465594929
        81           40.500000         0.307066040       334.934959313     -1103.194344549     -1102.800811774         7.555169065
        82           41.000000         0.296772529       323.707221933     -1103.197522693     -1102.800892544         8.306530159
        83           41.500000         0.302601448       330.065166577     -1103.200530903     -1102.800991564         7.497455735
        84           42.000000         0.305946356       333.713653779     -1103.203142809     -1102.801096877         7.511286058
        85           42.500000         0.301739764       329.125277147     -1103.200493213     -1102.801084137         7.506215543
        86           43.000000         0.296134348       323.011120325     -1103.199252084     -1102.801050661         8.333654169
        87           43.500000         0.290020032       316.341877443     -1103.199213693     -1102.801062779         7.497416802
        88           44.000000         0.299053102       326.194777584     -1103.198829799     -1102.801080379         7.489188846
        89           44.500000         0.301663046       329.041596853     -1103.197016567     -1102.801086521         8.325092010
        90           45.000000         0.300322128       327.578977953     -1103.193687566     -1102.801047904        10.915316854
        91           45.500000         0.301922504       329.324602191     -1103.191039121     -1102.800987499         8.309201248
        92           46.000000         0.300128864       327.368173658     -1103.186762551     -1102.800872850         8.320293806
        93           46.500000         0.274819236       299.761476147     -1103.182540027     -1102.800746972         7.513312418
        94           47.000000         0.265743062       289.861560445     -1103.180823485     -1102.800681411         8.309996556
        95           47.500000         0.285517403       311.430594989     -1103.185974137     -1102.800785407         8.309950434
        96           48.000000         0.287570340       313.669853960     -1103.192174618     -1102.800906144         8.319718920
        97           48.500000         0.296848991       323.790624055     -1103.197563082     -1102.800991813         8.304886911
        98           49.000000         0.291406327       317.853990856     -1103.199838524     -1102.801024213         7.528110448
        99           49.500000         0.296551047       323.465638985     -1103.197073918     -1102.800930440         7.534928240
       100           50.000000         0.262837500       286.692293428     -1103.193447467     -1102.800826681        11.701170541
       101           50.500000         0.272543685       297.279399554     -1103.191919252     -1102.800728009         7.497664686
       102           51.000000         0.284748626       310.592044809     -1103.191886392     -1102.800681317         7.584856391
       103           51.500000         0.282279758       307.899105633     -1103.190496601     -1102.800621158         8.346275859
       104           52.000000         0.274848079       299.792937250     -1103.191356151     -1102.800659048         7.499584064
       105           52.500000         0.280885457       306.378259887     -1103.194474843     -1102.800768680         8.297161214
       106           53.000000         0.283345106       309.061143113     -1103.199025464     -1102.800903039         8.312524382
       107           53.500000         0.291781600       318.263322452     -1103.202886726     -1102.801007106         7.496053945
       108           54.000000         0.289047877       315.281490553     -1103.205933564     -1102.801097029         7.504362360
       109           54.500000         0.297229839       324.206037219     -1103.207526849     -1102.801111273         8.302063957
       110           55.000000         0.290410139       316.767389560     -1103.204793361     -1102.801017214        10.480076525
       111           55.500000         0.292798094       319.372072415     -1103.200904527     -1102.800920664         7.485621121
       112           56.000000         0.305939231       333.705882698     -1103.197574771     -1102.800850871         7.488075316
       113           56.500000         0.286464454       312.463599568     -1103.194611475     -1102.800806433         7.481637821
       114           57.000000         0.282418292       308.050213046     -1103.194103419     -1102.800820397         8.249476474
       115           57.500000         0.297350710       324.337878679     -1103.194475939     -1102.800828636         7.442340907
       116           58.000000         0.296579720       323.496914026     -1103.194217242     -1102.800819286         7.429134715
       117           58.500000         0.274808944       299.750250562     -1103.197011282     -1102.800892831         7.476382352
       118           59.000000         0.287622733       313.727002734     -1103.199860486     -1102.800957872         7.538286574
       119           59.500000         0.300038326       327.269418476     -1103.199503436     -1102.800981715         7.498782221
       120           60.000000         0.294791087       321.545947065     -1103.197332164     -1102.800909024        10.375439767
       121           60.500000         0.275436826       300.435118404     -1103.196078635     -1102.800851119         7.506219830
       122           61.000000         0.283878823       309.643299884     -1103.197168266     -1102.800872620         7.495571405
       123           61.500000         0.283924979       309.693645026     -1103.200217030     -1102.800963564         7.493004497
       124           62.000000         0.293294489       319.913519695     -1103.200907898     -1102.800995186         7.513907094
       125           62.500000         0.293957547       320.636755704     -1103.201422704     -1102.800982487         7.503882129
       126           63.000000         0.298201002       325.265341699     -1103.201167925     -1102.800875870         7.508156057
       127           63.500000         0.313749515       342.225017373     -1103.203470639     -1102.800845621         7.497742914
       128           64.000000         0.308015674       335.970780721     -1103.202961317     -1102.800838223         7.503045905
       129           64.500000         0.307467704       335.373078156     -1103.203493666     -1102.800857236         7.493519157
       130           65.000000         0.317633340       346.461333210     -1103.204545369     -1102.800915815         9.849218238
       131           65.500000         0.299641693       326.836787990     -1103.203802038     -1102.800922590         7.505655397
       132           66.000000         0.293709656       320.366367381     -1103.201690279     -1102.800912866         7.502369568
       133           66.500000         0.301172325       328.506338326     -1103.195134414     -1102.800788564         7.507324573
       134           67.000000         0.293871306       320.542687922     -1103.189269744     -1102.800661149         7.518406067
       135           67.500000         0.294013529       320.697819078     -1103.184393667     -1102.800533764         7.494127315
       136           68.000000         0.294811606       321.568328469     -1103.181436254     -1102.800462321         7.495709389
       137           68.500000         0.295523015       322.344303813     -1103.180999347     -1102.800448915         7.509797152
       138           69.000000         0.280225150       305.658024570     -1103.182483625     -1102.800512698         7.516966797
       139           69.500000         0.279275785       304.622495988     -1103.186907525     -1102.800648214         8.328603610
       140           70.000000         0.300019563       327.248953068     -1103.193262184     -1102.800857095        10.510714747
       141           70.500000         0.296896573       323.842524445     -1103.196351652     -1102.801003714         7.513682727
       142           71.000000         0.306658164       334.490064500     -1103.193940237     -1102.801035882         8.316289522
       143           71.500000         0.284451139       310.267558273     -1103.186955036     -1102.800935440         7.500811689
       144           72.000000         0.290820175       317.214640354     -1103.180346667     -1102.800748514         7.506889790
       145           72.500000         0.287291743       313.365972408     -1103.172384321     -1102.800488565         7.505037155
       146           73.000000         0.268957372       293.367596982     -1103.169665617     -1102.800415081         8.322535738
       147           73.500000         0.273372651       298.183601865     -1103.171513246     -1102.800535448         7.495220561
       148           74.000000         0.274241266       299.131050381     -1103.175702649     -1102.800697419         7.488170106
       149           74.500000         0.281662242       307.225545247     -1103.180260035     -1102.800849841         7.510385323
       150           75.000000         0.286431112       312.427231462     -1103.185487601     -1102.800997512        10.257191096
       151           75.500000         0.299035700       326.175795961     -1103.189131457     -1102.801058560         7.487246372
       152           76.000000         0.288224921       314.383844030     -1103.189383625     -1102.800968482         8.312357154
       153           76.500000         0.276368028       301.450835202     -1103.187320256     -1102.800803995         7.502182286
       154           77.000000         0.267182938       291.432118404     -1103.184818182     -1102.800667359         7.501210738
       155           77.500000         0.261717859       285.471035904     -1103.187495245     -1102.800694264         7.488171414
       156           78.000000         0.266897564       291.120843697     -1103.191681477     -1102.800754996         7.520669702
       157           78.500000         0.270877560       295.462059715     -1103.199703207     -1102.800878324         8.325875513
       158           79.000000         0.295294155       322.094672991     -1103.207509442     -1102.801018752         8.330656961
       159           79.500000         0.299624997       326.818576075     -1103.211101754     -1102.801048281         8.315782759
       160           80.000000         0.303081358       330.588632402     -1103.209570314     -1102.801017226        11.456087634
       161           80.500000         0.287661831       313.769649146     -1103.205246308     -1102.800925254         8.305039942
       162           81.000000         0.273339912       298.147891229     -1103.198315271     -1102.800778805         8.315594118
       163           81.500000         0.285524995       311.438876786     -1103.193076588     -1102.800665777         7.508151483
       164           82.000000         0.284962103       310.824897229     -1103.189636050     -1102.800589350         8.328061003
       165           82.500000         0.291467478       317.920691793     -1103.187211060     -1102.800564399         8.324664056
       166           83.000000         0.289416274       315.683322785     -1103.189428997     -1102.800636876         8.322516713
       167           83.500000         0.284313091       310.116981296     -1103.190810775     -1102.800665305         8.349117070
       168           84.000000         0.293833175       320.501096284     -1103.192846425     -1102.800734004         8.348479360
       169           84.500000         0.282895165       308.570366154     -1103.193455285     -1102.800765454         8.322270818
       170           85.000000         0.291842862       318.330144703     -1103.192615921     -1102.800740744        11.400524717
       171           85.500000         0.267938390       292.256133861     -1103.190083807     -1102.800651619         8.320245463
       172           86.000000         0.263382617       287.286884582     -1103.190281781     -1102.800607381         8.275206346
       173           86.500000         0.276185547       301.251791862     -1103.193729623     -1102.800656895         7.453448568
       174           87.000000         0.283437573       309.162003120     -1103.198058147     -1102.800703560         8.336348828
       175           87.500000         0.269898769       294.394434467     -1103.203110521     -1102.800775861         8.321211390
       176           88.000000         0.274751331       299.687409082     -1103.208104397     -1102.800829686         8.317765754
       177           88.500000         0.289235498       315.486140434     -1103.213746680     -1102.800894655         7.499409374
       178           89.000000         0.295524200       322.345596275     -1103.216807445     -1102.800870359         7.508211598
       179           89.500000         0.306057560       333.834950520     -1103.219641292     -1102.800841238         7.511368446
       180           90.000000         0.305148684       332.843586199     -1103.221536684     -1102.800817010        11.172525920
       181           90.500000         0.324732140       354.204411861     -1103.224637365     -1102.800903271         8.354659874
       182           91.000000         0.308904520       336.940297307     -1103.228944986     -1102.801028147         8.324425925
       183           91.500000         0.314314449       342.841224358     -1103.229589392     -1102.801040877         8.330583517
       184           92.000000         0.297979465       325.023698699     -1103.228744470     -1102.801016189         8.350249849
       185           92.500000         0.285866608       311.811494278     -1103.226946415     -1102.801006048         8.316926751
       186           93.000000         0.288021062       314.161483883     -1103.223820628     -1102.800961129         8.333436728
       187           93.500000         0.277226009       302.386685368     -1103.219411011     -1102.800892753         8.335190427
       188           94.000000         0.282092231       307.694559516     -1103.215528017     -1102.800806720         8.333629079
       189           94.500000         0.273149630       297.940339765     -1103.213310856     -1102.800801352         8.322906658
       190           95.000000         0.263961311       287.918100352     -1103.210375358     -1102.800775216        11.697938975
       191           95.500000         0.270711694       295.281139724     -1103.210206955     -1102.800810357         7.511562388
       192           96.000000         0.253975512       277.026003437     -1103.213027612     -1102.800888351         7.517657496
       193           96.500000         0.280071435       305.490358509     -1103.211297401     -1102.800820924         7.519412968
       194           97.000000         0.279538630       304.909196688     -1103.210249780     -1102.800789738         8.327769261
       195           97.500000         0.276865363       301.993307317     -1103.208583695     -1102.800744041         7.502710856
       196           98.000000         0.272104855       296.800741841     -1103.205948551     -1102.800704645         7.530274034
       197           98.500000         0.271633399       296.286497475     -1103.206056366     -1102.800741352         8.333929475
       198           99.000000         0.261282109       284.995736886     -1103.206462101     -1102.800742715         7.514281854
       199           99.500000         0.260692335       284.352436251     -1103.205655177     -1102.800690274         8.314606503
       200          100.000000         0.265602033       289.707732119     -1103.203731636     -1102.800614006        10.867274109
       201          100.500000         0.261351197       285.071096017     -1103.201569545     -1102.800552595         8.321440786
       202          101.000000         0.266238298       290.401743726     -1103.203052762     -1102.800602001         8.320765335
       203          101.500000         0.278194281       303.442835912     -1103.203540701     -1102.800600446         8.343782607
       204          102.000000         0.284255627       310.054301876     -1103.206428071     -1102.800620521         8.319206007
       205          102.500000         0.283701965       309.450390574     -1103.209346727     -1102.800637412         8.348430678
       206          103.000000         0.293091394       319.691992211     -1103.213386691     -1102.800710551         8.322807215
       207          103.500000         0.282045464       307.643548191     -1103.217492539     -1102.800821060         8.312752597
       208          104.000000         0.291041155       317.455675913     -1103.219014102     -1102.800901910         8.332139242
       209          104.500000         0.292484286       319.029783903     -1103.219058857     -1102.800917368         8.323401522
       210          105.000000         0.286705731       312.726774135     -1103.216620879     -1102.800867541        11.040583394
       211          105.500000         0.267524921       291.805139226     -1103.212799651     -1102.800722569         7.536186513
       212          106.000000         0.255975589       279.207604910     -1103.210611839     -1102.800583020         7.516938396
       213          106.500000         0.268282420       292.631387210     -1103.212700799     -1102.800572103         7.507369064
       214          107.000000         0.288416651       314.592975677     -1103.217293714     -1102.800670796         7.515197080
       215          107.500000         0.294463098       321.188190438     -1103.224066147     -1102.800862760         7.511308126
       216          108.000000         0.298829040       325.950380125     -1103.231088277     -1102.801050104         7.500421196
       217          108.500000         0.308314603       336.296839685     -1103.234944732     -1102.801099790         7.521850191
       218          109.000000         0.285944055       311.895969556     -1103.233016550     -1102.800993596         7.520033896
       219          109.500000         0.274377419       299.279560895     -1103.229823971     -1102.800882590         7.492276765
       220          110.000000         0.281862998       307.444520883     -1103.229296678     -1102.800830112        10.153021254
       221          110.500000         0.282958688       308.639654484     -1103.232295398     -1102.800851446         7.511978254
       222          111.000000         0.280678674       306.152709606     -1103.236374026     -1102.800869678         7.510166340
       223          111.500000         0.282131595       307.737495528     -1103.240650467     -1102.800903410         7.514566228
       224          112.000000         0.275001765       299.960571210     -1103.243554262     -1102.800973498         7.514755663
       225          112.500000         0.277221005       302.381226587     -1103.248800215     -1102.801105778         7.449153993
       226          113.000000         0.290026751       316.349206374     -1103.251141310     -1102.801132849         7.479991648
       227          113.500000         0.293113848       319.716484446     -1103.252080321     -1102.801077172         7.500390548