ITEM: TIMESTEP
100000
ITEM: NUMBER OF ATOMS
400
ITEM: BOX BOUNDS pp pp pp
0.0000000000000000e+00 2.2360679774997898e+01
0.0000000000000000e+00 2.2360679774997898e+01
-5.5901699437494745e-01 5.5901699437494745e-01
ITEM: ATOMS id type xs ys zs
330 1 0.878201 0.0812855 0.5
130 1 0.0309236 0.00273554 0.5
133 1 0.0426377 0.101714 0.5
215 1 0.215971 0.0184562 0.5
267 1 0.232304 0.963822 0.5
222 1 0.317138 0.0481745 0.5
26 1 0.272487 0.0205023 0.5
226 1 0.436849 0.0189888 0.5
212 1 0.678026 0.977869 0.5
280 1 0.916449 0.00922239 0.5
204 1 0.987234 0.125153 0.5
288 1 0.177423 0.981024 0.5
345 1 0.266754 0.919505 0.5
93 1 0.192635 0.206257 0.5
378 1 0.165399 0.169397 0.5
230 1 0.520917 0.064287 0.5
145 1 0.632074 0.0920874 0.5
189 1 0.609814 0.94234 0.5
77 1 0.731668 0.0515304 0.5
346 1 0.584068 0.829749 0.5
128 1 0.838947 0.120683 0.5
332 1 0.92213 0.0506904 0.5
397 1 0.9804 0.0722554 0.5
383 1 0.971729 0.174642 0.5
362 1 0.232602 0.0732033 0.5
213 1 0.182621 0.0509306 0.5
34 1 0.251458 0.28635 0.5
83 1 0.337273 0.135099 0.5
229 1 0.270099 0.127656 0.5
40 1 0.422019 0.0624602 0.5
60 1 0.585781 0.0934269 0.5
8 1 0.608523 0.0465254 0.5
135 1 0.636817 0.00373336 0.5
372 1 0.816276 0.0134386 0.5
15 1 0.88491 0.203526 0.5
54 1 0.276376 0.0697334 0.5
366 1 0.214089 0.115193 0.5
279 1 0.2987 0.157064 0.5
6 1 0.36256 0.0627593 0.5
322 1 0.542769 0.021251 0.5
237 1 0.653276 0.0493587 0.5
312 1 0.773364 0.0687599 0.5
337 1 0.905911 0.12119 0.5
340 1 0.940993 0.0949778 0.5
5 1 0.947386 0.13884 0.5
39 1 0.0271613 0.148909 0.5
339 1 0.0764148 0.133681 0.5
186 1 0.122083 0.155831 0.5
300 1 0.242513 0.233044 0.5
243 1 0.152034 0.124379 0.5
176 1 0.283644 0.200536 0.5
244 1 0.483212 0.0154469 0.5
108 1 0.658784 0.250402 0.5
13 1 0.764834 0.0239707 0.5
390 1 0.721757 0.97565 0.5
347 1 0.857437 0.162597 0.5
3 1 0.906448 0.247938 0.5
75 1 0.866858 0.27608 0.5
301 1 0.0123716 0.190705 0.5
134 1 0.312162 0.247815 0.5
110 1 0.319644 0.306827 0.5
73 1 0.384377 0.114107 0.5
297 1 0.414509 0.156801 0.5
285 1 0.306995 0.100127 0.5
105 1 0.488477 0.110061 0.5
99 1 0.540945 0.127019 0.5
389 1 0.476326 0.058115 0.5
50 1 0.755968 0.257041 0.5
178 1 0.700122 0.208678 0.5
129 1 0.690252 0.0203144 0.5
400 1 0.78787 0.119347 0.5
22 1 0.823506 0.254787 0.5
344 1 0.929523 0.185692 0.5
87 1 0.145009 0.207043 0.5
353 1 0.0150318 0.279361 0.5
27 1 0.0586072 0.178121 0.5
183 1 0.1357 0.261018 0.5
352 1 0.346079 0.197078 0.5
277 1 0.580609 0.142378 0.5
299 1 0.59286 0.9916 0.5
49 1 0.806729 0.170819 0.5
356 1 0.915962 0.296083 0.5
302 1 0.00997296 0.333429 0.5
124 1 0.0853432 0.219582 0.5
396 1 0.206887 0.284035 0.5
187 1 0.207352 0.159795 0.5
12 1 0.452862 0.207742 0.5
398 1 0.621552 0.161433 0.5
114 1 0.616467 0.226363 0.5
20 1 0.664186 0.158244 0.5
262 1 0.710101 0.158347 0.5
335 1 0.691449 0.118187 0.5
185 1 0.759588 0.157123 0.5
200 1 0.829383 0.212254 0.5
29 1 0.87931 0.319939 0.5
162 1 0.922857 0.341304 0.5
101 1 0.956396 0.218701 0.5
57 1 0.175358 0.253824 0.5
180 1 0.165368 0.300986 0.5
171 1 0.320077 0.352667 0.5
67 1 0.374069 0.292141 0.5
239 1 0.468722 0.153993 0.5
231 1 0.710482 0.25909 0.5
374 1 0.743258 0.203782 0.5
76 1 0.119412 0.303243 0.5
119 1 0.218985 0.330763 0.5
31 1 0.439061 0.106438 0.5
294 1 0.410049 0.267148 0.5
71 1 0.37324 0.242104 0.5
113 1 0.544943 0.219437 0.5
217 1 0.656328 0.200226 0.5
82 1 0.751522 0.419642 0.5
219 1 0.733016 0.299397 0.5
38 1 0.86423 0.362906 0.5
380 1 0.785528 0.22533 0.5
284 1 0.835301 0.401596 0.5
91 1 0.957233 0.308682 0.5
109 1 0.997834 0.232025 0.5
307 1 0.17518 0.489059 0.5
381 1 0.175516 0.532598 0.5
155 1 0.278396 0.318373 0.5
287 1 0.159549 0.353402 0.5
195 1 0.403739 0.203597 0.5
210 1 0.442587 0.294667 0.5
56 1 0.509919 0.268783 0.5
81 1 0.66654 0.311621 0.5
260 1 0.77632 0.337062 0.5
377 1 0.786762 0.290257 0.5
137 1 0.790838 0.40682 0.5
303 1 0.880142 0.404615 0.5
220 1 0.0860624 0.266307 0.5
65 1 0.0676401 0.325876 0.5
342 1 0.17492 0.424458 0.5
55 1 0.584883 0.197714 0.5
257 1 0.552151 0.311496 0.5
266 1 0.610301 0.325631 0.5
203 1 0.576466 0.259619 0.5
315 1 0.702625 0.387426 0.5
122 1 0.765014 0.494453 0.5
263 1 0.783724 0.4537 0.5
334 1 0.940821 0.386342 0.5
228 1 0.106796 0.348998 0.5
242 1 0.132498 0.470736 0.5
199 1 0.20344 0.37587 0.5
24 1 0.309092 0.443077 0.5
393 1 0.306256 0.3961 0.5
196 1 0.467235 0.253299 0.5
150 1 0.394595 0.376505 0.5
336 1 0.528796 0.175414 0.5
88 1 0.569038 0.353153 0.5
138 1 0.656982 0.358265 0.5
36 1 0.708984 0.337649 0.5
304 1 0.831759 0.317403 0.5
157 1 0.745649 0.372274 0.5
74 1 0.140565 0.39699 0.5
270 1 0.221534 0.6307 0.5
42 1 0.220529 0.458295 0.5
275 1 0.227097 0.417369 0.5
80 1 0.485595 0.329796 0.5
235 1 0.517183 0.358473 0.5
283 1 0.618073 0.466442 0.5
78 1 0.817869 0.546147 0.5
70 1 0.823277 0.473258 0.5
100 1 0.924261 0.427874 0.5
355 1 0.0731387 0.390128 0.5
255 1 0.0340809 0.370328 0.5
192 1 0.230923 0.510519 0.5
338 1 0.2942 0.504631 0.5
112 1 0.496064 0.2182 0.5
216 1 0.560935 0.448787 0.5
28 1 0.609238 0.371305 0.5
182 1 0.705274 0.429049 0.5
391 1 0.844665 0.510908 0.5
382 1 0.966828 0.422414 0.5
132 1 0.106159 0.423623 0.5
43 1 0.361416 0.345247 0.5
146 1 0.350851 0.386649 0.5
236 1 0.401213 0.454918 0.5
384 1 0.403586 0.333413 0.5
292 1 0.444066 0.348213 0.5
211 1 0.679317 0.531931 0.5
142 1 0.600169 0.414587 0.5
269 1 0.896343 0.512559 0.5
35 1 0.915757 0.470939 0.5
233 1 0.868632 0.470477 0.5
44 1 0.990785 0.381506 0.5
373 1 0.0745685 0.513689 0.5
166 1 0.0830248 0.467954 0.5
318 1 0.119498 0.593602 0.5
11 1 0.263133 0.475832 0.5
198 1 0.354504 0.47925 0.5
58 1 0.262895 0.374783 0.5
293 1 0.432896 0.414213 0.5
148 1 0.537905 0.39843 0.5
115 1 0.731577 0.53147 0.5
69 1 0.655507 0.411537 0.5
343 1 0.797716 0.628854 0.5
399 1 0.965631 0.467213 0.5
225 1 0.0072324 0.437365 0.5
104 1 0.162312 0.604411 0.5
324 1 0.295725 0.596333 0.5
392 1 0.441135 0.467652 0.5
16 1 0.473772 0.43598 0.5
276 1 0.634506 0.51317 0.5
388 1 0.544708 0.49567 0.5
89 1 0.705261 0.491205 0.5
376 1 0.866478 0.549806 0.5
387 1 0.934401 0.58294 0.5
395 1 0.965127 0.617268 0.5
168 1 0.0253326 0.486771 0.5
319 1 0.101712 0.735924 0.5
264 1 0.0537861 0.431925 0.5
316 1 0.264798 0.538522 0.5
252 1 0.340641 0.606217 0.5
371 1 0.272164 0.422793 0.5
281 1 0.492421 0.391523 0.5
25 1 0.64054 0.557729 0.5
367 1 0.670064 0.456942 0.5
127 1 0.839074 0.634928 0.5
360 1 0.953563 0.521874 0.5
86 1 0.0389165 0.590115 0.5
174 1 0.0430517 0.54454 0.5
201 1 0.128066 0.647557 0.5
368 1 0.181003 0.64799 0.5
161 1 0.20112 0.580893 0.5
33 1 0.356823 0.430536 0.5
7 1 0.324394 0.537118 0.5
45 1 0.484914 0.48629 0.5
197 1 0.843877 0.589095 0.5
103 1 0.749581 0.605851 0.5
68 1 0.89072 0.588608 0.5
361 1 0.923393 0.64066 0.5
249 1 0.079831 0.570909 0.5
14 1 0.128732 0.548359 0.5
48 1 0.309256 0.729675 0.5
126 1 0.312205 0.643137 0.5
139 1 0.443565 0.535654 0.5
95 1 0.381836 0.604276 0.5
106 1 0.404939 0.505386 0.5
247 1 0.770829 0.555523 0.5
19 1 0.622624 0.606535 0.5
282 1 0.769247 0.691909 0.5
369 1 0.826443 0.67634 0.5
116 1 0.982753 0.577124 0.5
120 1 0.950832 0.716743 0.5
143 1 0.145285 0.691832 0.5
167 1 0.263377 0.719625 0.5
329 1 0.24599 0.680492 0.5
62 1 0.294971 0.687962 0.5
51 1 0.510607 0.532895 0.5
175 1 0.518786 0.44981 0.5
184 1 0.588074 0.51994 0.5
218 1 0.792404 0.761019 0.5
125 1 0.648991 0.648627 0.5
350 1 0.75866 0.64898 0.5
328 1 0.959189 0.665701 0.5
259 1 0.073906 0.668274 0.5
117 1 0.00189778 0.529046 0.5
97 1 0.26313 0.641104 0.5
2 1 0.423953 0.626301 0.5
272 1 0.550328 0.568119 0.5
246 1 0.372735 0.548396 0.5
66 1 0.595683 0.567934 0.5
258 1 0.579284 0.696922 0.5
85 1 0.915804 0.693695 0.5
232 1 0.00287979 0.671747 0.5
202 1 0.149012 0.773668 0.5
160 1 0.193381 0.695257 0.5
17 1 0.171746 0.738193 0.5
107 1 0.248503 0.793359 0.5
248 1 0.245324 0.587632 0.5
379 1 0.357291 0.743265 0.5
159 1 0.708293 0.5708 0.5
10 1 0.811173 0.717093 0.5
64 1 0.876314 0.656947 0.5
61 1 0.856012 0.718346 0.5
274 1 0.83635 0.760404 0.5
9 1 0.89736 0.753919 0.5
179 1 0.0241713 0.634222 0.5
224 1 0.0907073 0.626159 0.5
296 1 0.0843488 0.783013 0.5
205 1 0.204255 0.791675 0.5
351 1 0.347188 0.68169 0.5
193 1 0.400736 0.70508 0.5
94 1 0.520694 0.597511 0.5
221 1 0.609968 0.753007 0.5
223 1 0.693485 0.648404 0.5
305 1 0.604879 0.662815 0.5
96 1 0.637913 0.718547 0.5
386 1 0.714339 0.758832 0.5
290 1 0.745029 0.790672 0.5
23 1 0.894701 0.798368 0.5
323 1 0.938884 0.762138 0.5
37 1 0.96717 0.815809 0.5
102 1 0.97977 0.774119 0.5
370 1 0.12312 0.80955 0.5
268 1 0.276539 0.874566 0.5
207 1 0.318271 0.787217 0.5
164 1 0.371073 0.644362 0.5
317 1 0.478028 0.564488 0.5
234 1 0.570457 0.609396 0.5
273 1 0.681101 0.603349 0.5
341 1 0.996448 0.723243 0.5
63 1 0.0502246 0.712065 0.5
92 1 0.0272498 0.798226 0.5
289 1 0.281146 0.76889 0.5
158 1 0.466488 0.708868 0.5
271 1 0.669139 0.686187 0.5
240 1 0.624475 0.794033 0.5
188 1 0.683371 0.725837 0.5
72 1 0.547723 0.87051 0.5
90 1 0.672723 0.769426 0.5
118 1 0.721064 0.693548 0.5
131 1 0.785274 0.869459 0.5
32 1 0.782415 0.816273 0.5
177 1 0.880017 0.839199 0.5
111 1 0.991934 0.852326 0.5
30 1 0.890214 0.924285 0.5
291 1 0.0849447 0.855689 0.5
172 1 0.0710254 0.903008 0.5
154 1 0.218967 0.737165 0.5
385 1 0.425186 0.579125 0.5
214 1 0.448813 0.871663 0.5
53 1 0.511563 0.74498 0.5
169 1 0.848616 0.941232 0.5
141 1 0.924947 0.854741 0.5
295 1 0.136977 0.853679 0.5
190 1 0.302939 0.828353 0.5
209 1 0.36236 0.785331 0.5
358 1 0.456361 0.663135 0.5
357 1 0.508874 0.695882 0.5
364 1 0.509976 0.646549 0.5
251 1 0.546801 0.668891 0.5
331 1 0.562283 0.741039 0.5
21 1 0.645056 0.834871 0.5
123 1 0.697258 0.812023 0.5
286 1 0.827209 0.8046 0.5
359 1 0.958091 0.883372 0.5
327 1 0.870548 0.883735 0.5
333 1 0.0380051 0.84147 0.5
354 1 0.155758 0.895316 0.5
47 1 0.244765 0.838883 0.5
165 1 0.165935 0.81482 0.5
59 1 0.407172 0.748238 0.5
265 1 0.472134 0.616281 0.5
194 1 0.552835 0.916366 0.5
311 1 0.650045 0.878735 0.5
121 1 0.734621 0.843397 0.5
191 1 0.837615 0.848361 0.5
41 1 0.957344 0.963362 0.5
308 1 0.104833 0.0199824 0.5
363 1 0.0660343 0.975389 0.5
309 1 0.179404 0.935792 0.5
306 1 0.215345 0.907778 0.5
170 1 0.38026 0.829942 0.5
18 1 0.459487 0.790769 0.5
365 1 0.476468 0.831829 0.5
310 1 0.487002 0.930615 0.5
136 1 0.501888 0.880371 0.5
227 1 0.529165 0.829611 0.5
245 1 0.81769 0.905539 0.5
254 1 0.738781 0.890056 0.5
206 1 0.931401 0.9258 0.5
140 1 0.0814609 0.0702006 0.5
349 1 0.0280479 0.915646 0.5
151 1 0.118205 0.970039 0.5
348 1 0.193201 0.855305 0.5
152 1 0.410425 0.791729 0.5
52 1 0.296076 0.951253 0.5
313 1 0.429711 0.832339 0.5
156 1 0.379732 0.886566 0.5
394 1 0.660215 0.924045 0.5
153 1 0.694875 0.87795 0.5
375 1 0.694077 0.0699916 0.5
4 1 0.893711 0.968602 0.5
46 1 0.877766 0.0302943 0.5
1 1 0.980613 0.922561 0.5
149 1 -0.000155261 0.968535 0.5
298 1 0.116113 0.0971832 0.5
321 1 0.118795 0.915274 0.5
147 1 0.432271 0.911438 0.5
314 1 0.358099 0.945795 0.5
256 1 0.386083 0.979431 0.5
181 1 0.387054 0.0215525 0.5
163 1 0.603779 0.885919 0.5
261 1 0.5556 0.958225 0.5
208 1 0.706844 0.919273 0.5
325 1 0.824736 0.0751062 0.5
144 1 0.312729 0.908174 0.5
173 1 0.33925 0.00540924 0.5
241 1 0.338531 0.865005 0.5
84 1 0.457903 0.973945 0.5
253 1 0.499593 0.970674 0.5
278 1 0.568941 0.784007 0.5
250 1 0.735037 0.106292 0.5
238 1 0.748038 0.937685 0.5
326 1 0.789262 0.946396 0.5
98 1 0.974902 0.0272831 0.5
79 1 0.133001 0.0526928 0.5
320 1 0.149348 0.0137051 0.5
