#     Step Nr.          Time[fs]        Kin.[a.u.]          Temp[K]            Pot.[a.u.]        Cons Qty[a.u.]        UsedTime[s]
         0            0.000000         0.273612846       300.000000000     -1102.629448594     -1102.355835748         0.000000000
         1            0.500000         0.279633819       306.601634918     -1102.634728487     -1102.356032711      1271.566793900
         2            1.000000         0.278176228       305.003473713     -1102.643688340     -1102.356285322        83.661032557
         3            1.500000         0.280393422       307.434492997     -1102.653080703     -1102.356547289        81.336034361
         4            2.000000         0.282889483       310.171274159     -1102.655862600     -1102.356593452        84.175061133
         5            2.500000         0.294372846       322.762089256     -1102.653391721     -1102.356505399        84.292006847
         6            3.000000         0.293202260       321.478612092     -1102.644027094     -1102.356292113        85.423054468
         7            3.500000         0.275739443       302.331685376     -1102.631056927     -1102.356023130        86.337027378
         8            4.000000         0.264614578       290.133941924     -1102.619771042     -1102.355795899        86.632077724
         9            4.500000         0.268857948       294.786540953     -1102.613634927     -1102.355689469        85.388000697
        10            5.000000         0.262607548       287.933354685     -1102.612082629     -1102.355666725       591.727292545
        11            5.500000         0.288697192       316.539076467     -1102.616775792     -1102.355783250        85.642047964
        12            6.000000         0.295096611       323.555654134     -1102.622813260     -1102.355937950        83.654997777
        13            6.500000         0.289353988       317.259214176     -1102.629250655     -1102.356081233        83.786042519
        14            7.000000         0.287416783       315.135185470     -1102.637410482     -1102.356246228        83.839038536
        15            7.500000         0.310165102       340.077346930     -1102.641761748     -1102.356328622        85.224067591
        16            8.000000         0.323802738       355.030192819     -1102.645349103     -1102.356402515        83.163984425
        17            8.500000         0.301956868       331.077513241     -1102.645418760     -1102.356418530        88.586040210
        18            9.000000         0.286912673       314.582459298     -1102.641734958     -1102.356310656        83.640036259
