 DBCSR| CPU Multiplication driver                                           XSMM
 DBCSR| Multrec recursion limit                                              512
 DBCSR| Multiplication stack size                                           1000
 DBCSR| Maximum elements for images                                    UNLIMITED
 DBCSR| Multiplicative factor virtual images                                   1
 DBCSR| Use multiplication densification                                       T
 DBCSR| Multiplication size stacks                                             3
 DBCSR| Use memory pool for CPU allocation                                     F
 DBCSR| Number of 3D layers                                               SINGLE
 DBCSR| Use MPI memory allocation                                              F
 DBCSR| Use RMA algorithm                                                      F
 DBCSR| Use Communication thread                                               T
 DBCSR| Communication thread load                                             87
 DBCSR| MPI: My node id                                                        0
 DBCSR| MPI: Number of nodes                                                  12
 DBCSR| OMP: Current number of threads                                         1
 DBCSR| OMP: Max number of threads                                             1
 DBCSR| Split modifier for TAS multiplication algorithm                  1.0E+00


  **** **** ******  **  PROGRAM STARTED AT               2024-11-21 14:39:56.515
 ***** ** ***  *** **   PROGRAM STARTED ON                     cs049.hpc.nyu.edu
 **    ****   ******    PROGRAM STARTED BY                               zz10074
 ***** **    ** ** **   PROGRAM PROCESS ID                               3329857
  **** **  *******  **  PROGRAM STARTED IN /scratch/work/courses/CHEM-GA-2671-20
                                           24fa/students/zz10074/comp-lab-class-
                                           2024/Week12-IntroAIMD/Runs_Water

 CP2K| version string:                    CP2K version 8.0 (Development Version)
 CP2K| source code revision number:                                  git:8c64c6e
 CP2K| cp2kflags: omp libint fftw3 libxc elpa parallel mpi3 scalapack xsmm max_c
 CP2K|            ontr=4 mkl
 CP2K| is freely available from                            https://www.cp2k.org/
 CP2K| Program compiled at                          Sat Dec 12 18:27:15 EST 2020
 CP2K| Program compiled on                                     cs001.nyu.cluster
 CP2K| Program compiled for                                            nyu-intel
 CP2K| Data directory path                    /home/wang/cp2k-20201212/cp2k/data
 CP2K| Input file name                                                 water.inp
 
 GLOBAL| Force Environment number                                              1
 GLOBAL| Basis set file name                                           HFX_BASIS
 GLOBAL| Potential file name                                      GTH_POTENTIALS
 GLOBAL| MM Potential file name                                     MM_POTENTIAL
 GLOBAL| Coordinate file name                                          water.xyz
 GLOBAL| Method name                                                        CP2K
 GLOBAL| Project name                                  water_aimd_1ns_every0.5fs
 GLOBAL| Preferred FFT library                                             FFTW3
 GLOBAL| Preferred diagonalization lib.                                     ELPA
 GLOBAL| Run type                                                             MD
 GLOBAL| All-to-all communication in single precision                          F
 GLOBAL| FFTs using library dependent lengths                                  F
 GLOBAL| Global print level                                                  LOW
 GLOBAL| MPI I/O enabled                                                       T
 GLOBAL| Total number of message passing processes                            12
 GLOBAL| Number of threads for this process                                    1
 GLOBAL| This output is from process                                           0
 GLOBAL| CPU model name             Intel(R) Xeon(R) Platinum 8268 CPU @ 2.90GHz
 GLOBAL| CPUID                                                              1003
 GLOBAL| Compiled for CPUID                                                    0

 *** HINT in environment.F:801 :: The compiler target flags (generic) used ***
 *** to build this binary cannot exploit all extensions of this CPU model  ***
 *** (x86_avx512). Consider compiler target flags as part of FCFLAGS and   ***
 *** CFLAGS (ARCH file).                                                   ***


 MEMORY| system memory details [Kb]
 MEMORY|                        rank 0           min           max       average
 MEMORY| MemTotal            197210676     197210676     197210676     197210676
 MEMORY| MemFree             150265332     150265332     150265332     150265332
 MEMORY| Buffers                 10896         10896         10896         10896
 MEMORY| Cached                4026576       4026576       4026576       4026576
 MEMORY| Slab                  1387696       1387696       1387696       1387696
 MEMORY| SReclaimable           678476        678476        678476        678476
 MEMORY| MemLikelyFree       154981280     154981280     154981280     154981280

 
 GENERATE|  Preliminary Number of Bonds generated:                             0
 GENERATE|  Achieved consistency in connectivity generation.

 *******************************************************************************
 *******************************************************************************
 **                                                                           **
 **     #####                         ##              ##                      **
 **    ##   ##            ##          ##              ##                      **
 **   ##     ##                       ##            ######                    **
 **   ##     ##  ##   ##  ##   #####  ##  ##   ####   ##    #####    #####    **
 **   ##     ##  ##   ##  ##  ##      ## ##   ##      ##   ##   ##  ##   ##   **
 **   ##  ## ##  ##   ##  ##  ##      ####     ###    ##   ######   ######    **
 **    ##  ###   ##   ##  ##  ##      ## ##      ##   ##   ##       ##        **
 **     #######   #####   ##   #####  ##  ##  ####    ##    #####   ##        **
 **           ##                                                    ##        **
 **                                                                           **
 **                                                ... make the atoms dance   **
 **                                                                           **
 **            Copyright (C) by CP2K developers group (2000 - 2020)           **
 **                      J. Chem. Phys. 152, 194103 (2020)                    **
 **                                                                           **
 *******************************************************************************


 TOTAL NUMBERS AND MAXIMUM NUMBERS

  Total number of            - Atomic kinds:                                   2
                             - Atoms:                                        192
                             - Shell sets:                                   576
                             - Shells:                                       704
                             - Primitive Cartesian functions:                960
                             - Cartesian basis functions:                   1536
                             - Spherical basis functions:                   1472

  Maximum angular momentum of- Orbital basis functions:                        2
                             - Local part of the GTH pseudopotential:          2
                             - Non-local part of the GTH pseudopotential:      0


 SCF PARAMETERS         Density guess:                                    ATOMIC
                        --------------------------------------------------------
                        max_scf:                                              30
                        max_scf_history:                                       0
                        max_diis:                                              4
                        --------------------------------------------------------
                        eps_scf:                                        1.00E-06
                        eps_scf_history:                                0.00E+00
                        eps_diis:                                       1.00E-01
                        eps_eigval:                                     1.00E-05
                        --------------------------------------------------------
                        level_shift [a.u.]:                                 0.00
                        --------------------------------------------------------
                        Outer loop SCF in use 
                        No variables optimised in outer loop
                        eps_scf                                         1.00E-06
                        max_scf                                               10
                        No outer loop optimization
                        step_size                                       5.00E-01
 
 MD_PAR| Molecular dynamics protocol (MD input parameters)
 MD_PAR| Ensemble type                                                       NVT
 MD_PAR| Number of time steps                                               2000
 MD_PAR| Time step [fs]                                                 0.500000
 MD_PAR| Temperature [K]                                              300.000000
 MD_PAR| Temperature tolerance [K]                                      0.000000
 MD_PAR| Print MD information every                                    1 step(s)
 MD_PAR| File type   Print frequency [steps]                          File names
 MD_PAR| Coordinates          1              water_aimd_1ns_every0.5fs-pos-1.xyz
 MD_PAR| Velocities           1              water_aimd_1ns_every0.5fs-vel-1.xyz
 MD_PAR| Energies             1                 water_aimd_1ns_every0.5fs-1.ener
 MD_PAR| Dump                 1              water_aimd_1ns_every0.5fs-1.restart

 ROT| Rotational analysis information
 ROT| Principal axes and moments of inertia [a.u.]
 ROT|                           1                   2                   3
 ROT| Eigenvalues      2.05585957588E+08   2.18420756715E+08   2.44815971865E+08
 ROT|      x              0.422535724749     -0.517084350433      0.744370429187
 ROT|      y              0.905625145748      0.208115968654     -0.369500796994
 ROT|      z              0.036147706690      0.830247865477      0.556221021872
 ROT| Number of rotovibrational vectors                                        6

 DOF| Calculation of degrees of freedom
 DOF| Number of atoms                                                        192
 DOF| Number of intramolecular constraints                                     0
 DOF| Number of intermolecular constraints                                     0
 DOF| Invariants (translations + rotations)                                    0
 DOF| Degrees of freedom                                                     576

 DOF| Restraints information
 DOF| Number of intramolecular restraints                                      0
 DOF| Number of intermolecular restraints                                      0

 THERMOSTAT| Thermostat information for PARTICLES
 THERMOSTAT| End of thermostat information for PARTICLES

 MD_VEL| Velocities initialization
 MD_VEL| Initial temperature [K]                                      300.000000
 MD_VEL| COM velocity             0.0000000000    -0.0000000000     0.0000000000

 Number of electrons:                                                        512
 Number of occupied orbitals:                                                256
 Number of molecular orbitals:                                               256

 Number of orbital functions:                                               1472
 Number of independent orbital functions:                                   1472

 Extrapolation method: initial_guess


 SCF WAVEFUNCTION OPTIMIZATION

  ----------------------------------- OT ---------------------------------------
  Minimizer      : DIIS                : direct inversion
                                         in the iterative subspace
                                         using   7 DIIS vectors
                                         safer DIIS on
  Preconditioner : FULL_SINGLE_INVERSE : inversion of 
                                         H + eS - 2*(Sc)(c^T*H*c+const)(Sc)^T
  Precond_solver : DEFAULT
  stepsize       :    0.08000000                  energy_gap     :    0.08000000
  eps_taylor     :   0.10000E-15                  max_taylor     :             4
  ----------------------------------- OT ---------------------------------------

  Step     Update method      Time    Convergence         Total energy    Change
  ------------------------------------------------------------------------------
     1 OT DIIS     0.80E-01   33.8     0.02979138     -1059.5117370997 -1.06E+03
     2 OT DIIS     0.80E-01   14.2     0.02151348     -1079.6271803158 -2.01E+01
     3 OT DIIS     0.80E-01   13.4     0.01644743     -1090.1857861946 -1.06E+01
     4 OT DIIS     0.80E-01   12.0     0.00993331     -1097.9489840315 -7.76E+00
     5 OT DIIS     0.80E-01   15.7     0.00640250     -1100.1897484506 -2.24E+00
     6 OT DIIS     0.80E-01   13.1     0.00449382     -1101.4259659520 -1.24E+00
     7 OT DIIS     0.80E-01   14.2     0.00313319     -1101.9491512804 -5.23E-01
     8 OT DIIS     0.80E-01   13.0     0.00205842     -1102.2785605865 -3.29E-01
     9 OT DIIS     0.80E-01   13.3     0.00138024     -1102.4307083644 -1.52E-01
    10 OT DIIS     0.80E-01   12.9     0.00110551     -1102.4906905235 -6.00E-02
    11 OT DIIS     0.80E-01   13.6     0.00079426     -1102.5454090294 -5.47E-02
    12 OT DIIS     0.80E-01   12.7     0.00061734     -1102.5751208108 -2.97E-02
    13 OT DIIS     0.80E-01   13.9     0.00042219     -1102.5977421542 -2.26E-02
    14 OT DIIS     0.80E-01   13.6     0.00030276     -1102.6113289899 -1.36E-02
    15 OT DIIS     0.80E-01   13.3     0.00021270     -1102.6186445185 -7.32E-03
    16 OT DIIS     0.80E-01   13.2     0.00016097     -1102.6221779986 -3.53E-03
    17 OT DIIS     0.80E-01   13.1     0.00013225     -1102.6239634966 -1.79E-03
    18 OT DIIS     0.80E-01   13.1     0.00010630     -1102.6251175867 -1.15E-03
    19 OT DIIS     0.80E-01   12.5     0.00008633     -1102.6259836398 -8.66E-04
    20 OT DIIS     0.80E-01   12.6     0.00007396     -1102.6265547387 -5.71E-04
    21 OT DIIS     0.80E-01   13.4     0.00006396     -1102.6269783906 -4.24E-04
    22 OT DIIS     0.80E-01   13.3     0.00005545     -1102.6273343193 -3.56E-04
    23 OT DIIS     0.80E-01   13.9     0.00004838     -1102.6276225443 -2.88E-04
    24 OT DIIS     0.80E-01   13.7     0.00004214     -1102.6278658023 -2.43E-04
    25 OT DIIS     0.80E-01   13.3     0.00003799     -1102.6280438649 -1.78E-04
    26 OT DIIS     0.80E-01   12.8     0.00003481     -1102.6281744642 -1.31E-04
    27 OT DIIS     0.80E-01   14.2     0.00003158     -1102.6282939151 -1.19E-04
    28 OT DIIS     0.80E-01   13.0     0.00002895     -1102.6283997808 -1.06E-04
    29 OT DIIS     0.80E-01   13.1     0.00002694     -1102.6284862534 -8.65E-05
    30 OT DIIS     0.80E-01   13.6     0.00002493     -1102.6285676143 -8.14E-05

  Leaving inner SCF loop after reaching    30 steps.


  Electronic density on regular grids:       -511.9999999887        0.0000000113
  Core density on regular grids:              511.9999999832       -0.0000000168
  Total charge density on r-space grids:       -0.0000000055
  Total charge density g-space grids:          -0.0000000055

  Overlap energy of the core charge distribution:               0.00000237129466
  Self energy of the core charge distribution:              -2838.21791979120962
  Core Hamiltonian energy:                                    829.95624199358326
  Hartree energy:                                            1177.81191005917071
  Exchange-correlation energy:                               -271.93300064642665
  Dispersion energy:                                           -0.24580160066492

  Total energy:                                             -1102.62856761425246

  outer SCF iter =    1 RMS gradient =   0.25E-04 energy =      -1102.6285676143

  ----------------------------------- OT ---------------------------------------
  Minimizer      : DIIS                : direct inversion
                                         in the iterative subspace
                                         using   7 DIIS vectors
                                         safer DIIS on
  Preconditioner : FULL_SINGLE_INVERSE : inversion of 
                                         H + eS - 2*(Sc)(c^T*H*c+const)(Sc)^T
  Precond_solver : DEFAULT
  stepsize       :    0.08000000                  energy_gap     :    0.08000000
  eps_taylor     :   0.10000E-15                  max_taylor     :             4
  ----------------------------------- OT ---------------------------------------

  Step     Update method      Time    Convergence         Total energy    Change
  ------------------------------------------------------------------------------
     1 OT DIIS     0.80E-01   45.2     0.00013129     -1102.6286382279 -7.06E-05
     2 OT DIIS     0.80E-01    7.5     0.00008751     -1102.6290682650 -4.30E-04
     3 OT DIIS     0.80E-01    7.5     0.00002260     -1102.6294221577 -3.54E-04
     4 OT DIIS     0.80E-01    7.4     0.00001004     -1102.6294436048 -2.14E-05
     5 OT DIIS     0.80E-01    7.6     0.00000424     -1102.6294476654 -4.06E-06
     6 OT DIIS     0.80E-01    7.6     0.00000175     -1102.6294484310 -7.66E-07
     7 OT DIIS     0.80E-01    8.0     0.00000082     -1102.6294485619 -1.31E-07

  *** SCF run converged in     7 steps ***


  Electronic density on regular grids:       -511.9999999887        0.0000000113
  Core density on regular grids:              511.9999999832       -0.0000000168
  Total charge density on r-space grids:       -0.0000000055
  Total charge density g-space grids:          -0.0000000055

  Overlap energy of the core charge distribution:               0.00000237129466
  Self energy of the core charge distribution:              -2838.21791979120962
  Core Hamiltonian energy:                                    829.95792476645443
  Hartree energy:                                            1177.81068023456237
  Exchange-correlation energy:                               -271.93433454232616
  Dispersion energy:                                           -0.24580160066492

  Total energy:                                             -1102.62944856188915

  outer SCF iter =    2 RMS gradient =   0.82E-06 energy =      -1102.6294485619
  outer SCF loop converged in   2 iterations or   37 steps

  
  Eigenvalues of the occupied subspace spin            1
 ---------------------------------------------
      -0.81891446     -0.81673141     -0.81456334     -0.81283761
      -0.81110286     -0.80936816     -0.80894703     -0.80816639
      -0.80798687     -0.80614228     -0.80419131     -0.80224494
      -0.80122070     -0.80076860     -0.79915728     -0.79795109
      -0.79769666     -0.79565650     -0.79505972     -0.79333710
      -0.79291697     -0.79205858     -0.79134148     -0.79093820
      -0.78922757     -0.78878486     -0.78848976     -0.78816399
      -0.78673276     -0.78421737     -0.78288772     -0.78215182
      -0.78171288     -0.78159676     -0.78122840     -0.78061236
      -0.78008842     -0.77877245     -0.77847392     -0.77757407
      -0.77640667     -0.77562946     -0.77456890     -0.77403022
      -0.77291664     -0.77146944     -0.77090691     -0.76957042
      -0.76895285     -0.76803365     -0.76678436     -0.76549998
      -0.76397491     -0.76341471     -0.75969540     -0.75734041
      -0.75601897     -0.75442610     -0.75312867     -0.75039068
      -0.74898505     -0.74579381     -0.73863673     -0.73191682
      -0.38263144     -0.37282255     -0.37064098     -0.37040783
      -0.36942485     -0.36759824     -0.36642664     -0.36573770
      -0.36467212     -0.36416976     -0.36389220     -0.36224227
      -0.36007568     -0.35963606     -0.35846380     -0.35739733
      -0.35707603     -0.35675035     -0.35475859     -0.35378854
      -0.35293869     -0.35187336     -0.35059068     -0.35011960
      -0.34766931     -0.34729193     -0.34659302     -0.34636982
      -0.34435501     -0.34423531     -0.34345730     -0.34281267
      -0.34150664     -0.34047946     -0.33969062     -0.33867633
      -0.33850659     -0.33745461     -0.33724942     -0.33679298
      -0.33645785     -0.33507365     -0.33436393     -0.33368495
      -0.33282026     -0.33167279     -0.33072597     -0.32977614
      -0.32894844     -0.32840077     -0.32648886     -0.32585021
      -0.32486651     -0.32205509     -0.32175378     -0.31721960
      -0.31637759     -0.31416007     -0.31349885     -0.30862632
      -0.30845867     -0.30499942     -0.30030196     -0.28768276
      -0.26427909     -0.26024217     -0.25716927     -0.25670650
      -0.25459606     -0.25279945     -0.25105736     -0.24856308
      -0.24753301     -0.24429473     -0.24220530     -0.24116298
      -0.23714929     -0.23562717     -0.23291249     -0.23163941
      -0.23043730     -0.22963247     -0.22903284     -0.22833990
      -0.22537939     -0.22384593     -0.22012426     -0.21912220
      -0.21770311     -0.21647921     -0.21589213     -0.21270630
      -0.21176200     -0.21018302     -0.20801147     -0.20663006
      -0.20551138     -0.20472581     -0.20417081     -0.20384861
      -0.20097347     -0.20063008     -0.19861379     -0.19694192
      -0.19637698     -0.19489230     -0.19351078     -0.19257467
      -0.19152293     -0.19061389     -0.18866174     -0.18729371
      -0.18641170     -0.18532129     -0.18427678     -0.18239692
      -0.18130290     -0.17965860     -0.17940155     -0.17661564
      -0.17592905     -0.17442714     -0.17208477     -0.17155532
      -0.16997662     -0.16893070     -0.15997830     -0.15355665
      -0.15276164     -0.15122042     -0.14958400     -0.14856284
      -0.14821724     -0.14789956     -0.14748740     -0.14641192
      -0.14587563     -0.14394080     -0.14304579     -0.14232431
      -0.14198583     -0.14060270     -0.14017828     -0.13857900
      -0.13817554     -0.13763938     -0.13683556     -0.13660968
      -0.13543358     -0.13522683     -0.13497940     -0.13414497
      -0.13384138     -0.13334465     -0.13317101     -0.13232941
      -0.13150023     -0.13064805     -0.13057008     -0.13002307
      -0.12881209     -0.12820216     -0.12763756     -0.12635705
      -0.12588412     -0.12559192     -0.12496010     -0.12450245
      -0.12315982     -0.12228350     -0.12154151     -0.12090036
      -0.12060728     -0.12022928     -0.11972684     -0.11874361
      -0.11852555     -0.11801646     -0.11749707     -0.11658528
      -0.11642882     -0.11610780     -0.11370467     -0.11125155
      -0.11048373     -0.10987949     -0.10813065     -0.10731821
      -0.10474082     -0.10070132     -0.09769358     -0.09583102
 Fermi Energy [eV] :   -2.607695
  
  Lowest Eigenvalues of the unoccupied subspace spin            1
 -----------------------------------------------------
  Reached convergence in          123  iterations 
       0.07667537      0.11892728      0.12589538      0.12946460
  
 HOMO - LUMO gap [eV] :    4.694137

 ENERGY| Total FORCE_EVAL ( QS ) energy [a.u.]:            -1102.629448593683264

 MD_INI| MD initialization
 MD_INI| Potential energy [hartree]                          -0.110262944859E+04
 MD_INI| Kinetic energy [hartree]                             0.273612845660E+00
 MD_INI| Temperature [K]                                              300.000000
 MD_INI| Cell volume [bohr^3]                                 1.292889458088E+04
 MD_INI| Cell volume [ang^3]                                  1.915864488000E+03
 MD_INI| Cell lengths [bohr]      2.34703986E+01  2.34703986E+01  2.34703986E+01
 MD_INI| Cell lengths [ang]       1.24200000E+01  1.24200000E+01  1.24200000E+01
 MD_INI| Cell angles [deg]        9.00000000E+01  9.00000000E+01  9.00000000E+01

 Number of electrons:                                                        512
 Number of occupied orbitals:                                                256
 Number of molecular orbitals:                                               256

 Number of orbital functions:                                               1472
 Number of independent orbital functions:                                   1472

 Extrapolation method: ASPC


 SCF WAVEFUNCTION OPTIMIZATION

  ----------------------------------- OT ---------------------------------------
  Minimizer      : DIIS                : direct inversion
                                         in the iterative subspace
                                         using   7 DIIS vectors
                                         safer DIIS on
  Preconditioner : FULL_SINGLE_INVERSE : inversion of 
                                         H + eS - 2*(Sc)(c^T*H*c+const)(Sc)^T
  Precond_solver : DEFAULT
  stepsize       :    0.08000000                  energy_gap     :    0.08000000
  eps_taylor     :   0.10000E-15                  max_taylor     :             4
  ----------------------------------- OT ---------------------------------------

  Step     Update method      Time    Convergence         Total energy    Change
  ------------------------------------------------------------------------------
     1 OT DIIS     0.80E-01   20.9     0.00034046     -1102.6304176094 -1.10E+03
     2 OT DIIS     0.80E-01    8.3     0.00019745     -1102.6331037509 -2.69E-03
     3 OT DIIS     0.80E-01    8.3     0.00007577     -1102.6344773216 -1.37E-03
     4 OT DIIS     0.80E-01    8.1     0.00002954     -1102.6346907058 -2.13E-04
     5 OT DIIS     0.80E-01    8.3     0.00000773     -1102.6347259712 -3.53E-05
     6 OT DIIS     0.80E-01    8.2     0.00000328     -1102.6347280327 -2.06E-06
     7 OT DIIS     0.80E-01    8.6     0.00000122     -1102.6347284210 -3.88E-07
     8 OT DIIS     0.80E-01    8.2     0.00000045     -1102.6347284790 -5.80E-08

  *** SCF run converged in     8 steps ***


  Electronic density on regular grids:       -511.9999999887        0.0000000113
  Core density on regular grids:              511.9999999832       -0.0000000168
  Total charge density on r-space grids:       -0.0000000055
  Total charge density g-space grids:          -0.0000000055

  Overlap energy of the core charge distribution:               0.00000225102562
  Self energy of the core charge distribution:              -2838.21791979120962
  Core Hamiltonian energy:                                    829.71048620422891
  Hartree energy:                                            1177.98225822932341
  Exchange-correlation energy:                               -271.86378560956643
  Dispersion energy:                                           -0.24576976278306

  Total energy:                                             -1102.63472847898106

  outer SCF iter =    1 RMS gradient =   0.45E-06 energy =      -1102.6347284790
  outer SCF loop converged in   1 iterations or    8 steps


 ENERGY| Total FORCE_EVAL ( QS ) energy [a.u.]:            -1102.634728486577160

 MD| ***************************************************************************
 MD| Step number                                                               1
 MD| Time [fs]                                                          0.500000
 MD| Conserved quantity [hartree]                            -0.110235603271E+04
 MD| ---------------------------------------------------------------------------
 MD|                                          Instantaneous             Averages
 MD| CPU time per MD step [s]                   1271.566794          1271.566794
 MD| Energy drift per atom [K]          -0.323937301923E+00   0.000000000000E+00
 MD| Potential energy [hartree]         -0.110263472849E+04  -0.110263472849E+04
 MD| Kinetic energy [hartree]            0.279633819380E+00   0.279633819380E+00
 MD| Temperature [K]                             306.601635           306.601635
 MD| ***************************************************************************

 Number of electrons:                                                        512
 Number of occupied orbitals:                                                256
 Number of molecular orbitals:                                               256

 Number of orbital functions:                                               1472
 Number of independent orbital functions:                                   1472

 Extrapolation method: ASPC


 SCF WAVEFUNCTION OPTIMIZATION

  ----------------------------------- OT ---------------------------------------
  Minimizer      : DIIS                : direct inversion
                                         in the iterative subspace
                                         using   7 DIIS vectors
                                         safer DIIS on
  Preconditioner : FULL_SINGLE_INVERSE : inversion of 
                                         H + eS - 2*(Sc)(c^T*H*c+const)(Sc)^T
  Precond_solver : DEFAULT
  stepsize       :    0.08000000                  energy_gap     :    0.08000000
  eps_taylor     :   0.10000E-15                  max_taylor     :             4
  ----------------------------------- OT ---------------------------------------

  Step     Update method      Time    Convergence         Total energy    Change
  ------------------------------------------------------------------------------
     1 OT DIIS     0.80E-01   19.4     0.00018397     -1102.6424921758 -1.10E+03
     2 OT DIIS     0.80E-01    8.1     0.00010287     -1102.6432649588 -7.73E-04
     3 OT DIIS     0.80E-01    8.3     0.00003893     -1102.6436235979 -3.59E-04
     4 OT DIIS     0.80E-01    8.4     0.00001574     -1102.6436776336 -5.40E-05
     5 OT DIIS     0.80E-01    8.4     0.00000405     -1102.6436876537 -1.00E-05
     6 OT DIIS     0.80E-01    8.3     0.00000164     -1102.6436882287 -5.75E-07
     7 OT DIIS     0.80E-01    8.5     0.00000063     -1102.6436883250 -9.63E-08

  *** SCF run converged in     7 steps ***


  Electronic density on regular grids:       -511.9999999888        0.0000000112
  Core density on regular grids:              511.9999999831       -0.0000000169
  Total charge density on r-space grids:       -0.0000000057
  Total charge density g-space grids:          -0.0000000057

  Overlap energy of the core charge distribution:               0.00000200487868
  Self energy of the core charge distribution:              -2838.21791979120962
  Core Hamiltonian energy:                                    829.17514811023466
  Hartree energy:                                            1178.35483062461071
  Exchange-correlation energy:                               -271.71002372775024
  Dispersion energy:                                           -0.24572554576212

  Total energy:                                             -1102.64368832499781

  outer SCF iter =    1 RMS gradient =   0.63E-06 energy =      -1102.6436883250
  outer SCF loop converged in   1 iterations or    7 steps


 ENERGY| Total FORCE_EVAL ( QS ) energy [a.u.]:            -1102.643688340113840

 MD| ***************************************************************************
 MD| Step number                                                               2
 MD| Time [fs]                                                          1.000000
 MD| Conserved quantity [hartree]                            -0.110235628532E+04
 MD| ---------------------------------------------------------------------------
 MD|                                          Instantaneous             Averages
 MD| CPU time per MD step [s]                     83.661033           677.613913
 MD| Energy drift per atom [K]          -0.739395655870E+00  -0.369697827935E+00
 MD| Potential energy [hartree]         -0.110264368834E+04  -0.110263920841E+04
 MD| Kinetic energy [hartree]            0.278176227929E+00   0.278905023654E+00
 MD| Temperature [K]                             305.003474           305.802554
 MD| ***************************************************************************

 Number of electrons:                                                        512
 Number of occupied orbitals:                                                256
 Number of molecular orbitals:                                               256

 Number of orbital functions:                                               1472
 Number of independent orbital functions:                                   1472

 Extrapolation method: ASPC


 SCF WAVEFUNCTION OPTIMIZATION

  ----------------------------------- OT ---------------------------------------
  Minimizer      : DIIS                : direct inversion
                                         in the iterative subspace
                                         using   7 DIIS vectors
                                         safer DIIS on
  Preconditioner : FULL_SINGLE_INVERSE : inversion of 
                                         H + eS - 2*(Sc)(c^T*H*c+const)(Sc)^T
  Precond_solver : DEFAULT
  stepsize       :    0.08000000                  energy_gap     :    0.08000000
  eps_taylor     :   0.10000E-15                  max_taylor     :             4
  ----------------------------------- OT ---------------------------------------

  Step     Update method      Time    Convergence         Total energy    Change
  ------------------------------------------------------------------------------
     1 OT DIIS     0.80E-01   17.2     0.00018090     -1102.6518939868 -1.10E+03
     2 OT DIIS     0.80E-01    8.3     0.00010306     -1102.6526467768 -7.53E-04
     3 OT DIIS     0.80E-01    8.0     0.00003970     -1102.6530133343 -3.67E-04
     4 OT DIIS     0.80E-01    8.1     0.00001592     -1102.6530698075 -5.65E-05
     5 OT DIIS     0.80E-01    8.4     0.00000398     -1102.6530800430 -1.02E-05
     6 OT DIIS     0.80E-01    8.0     0.00000160     -1102.6530805986 -5.56E-07
     7 OT DIIS     0.80E-01    8.4     0.00000063     -1102.6530806878 -8.92E-08

  *** SCF run converged in     7 steps ***


  Electronic density on regular grids:       -511.9999999888        0.0000000112
  Core density on regular grids:              511.9999999832       -0.0000000168
  Total charge density on r-space grids:       -0.0000000056
  Total charge density g-space grids:          -0.0000000056

  Overlap energy of the core charge distribution:               0.00000171680908
  Self energy of the core charge distribution:              -2838.21791979120962
  Core Hamiltonian energy:                                    828.50401945313683
  Hartree energy:                                            1178.82314837065542
  Exchange-correlation energy:                               -271.51664546331847
  Dispersion energy:                                           -0.24568497384075

  Total energy:                                             -1102.65308068776744

  outer SCF iter =    1 RMS gradient =   0.63E-06 energy =      -1102.6530806878
  outer SCF loop converged in   1 iterations or    7 steps


 ENERGY| Total FORCE_EVAL ( QS ) energy [a.u.]:            -1102.653080702780471

 MD| ***************************************************************************
 MD| Step number                                                               3
 MD| Time [fs]                                                          1.500000
 MD| Conserved quantity [hartree]                            -0.110235654729E+04
 MD| ---------------------------------------------------------------------------
 MD|                                          Instantaneous             Averages
 MD| CPU time per MD step [s]                     81.336034           478.854620
 MD| Energy drift per atom [K]          -0.117024262502E+01  -0.636546093632E+00
 MD| Potential energy [hartree]         -0.110265308070E+04  -0.110264383251E+04
 MD| Kinetic energy [hartree]            0.280393421610E+00   0.279401156306E+00
 MD| Temperature [K]                             307.434493           306.346534
 MD| ***************************************************************************

 Number of electrons:                                                        512
 Number of occupied orbitals:                                                256
 Number of molecular orbitals:                                               256

 Number of orbital functions:                                               1472
 Number of independent orbital functions:                                   1472

 Extrapolation method: ASPC


 SCF WAVEFUNCTION OPTIMIZATION

  ----------------------------------- OT ---------------------------------------
  Minimizer      : DIIS                : direct inversion
                                         in the iterative subspace
                                         using   7 DIIS vectors
                                         safer DIIS on
  Preconditioner : FULL_SINGLE_INVERSE : inversion of 
                                         H + eS - 2*(Sc)(c^T*H*c+const)(Sc)^T
  Precond_solver : DEFAULT
  stepsize       :    0.08000000                  energy_gap     :    0.08000000
  eps_taylor     :   0.10000E-15                  max_taylor     :             4
  ----------------------------------- OT ---------------------------------------

  Step     Update method      Time    Convergence         Total energy    Change
  ------------------------------------------------------------------------------
     1 OT DIIS     0.80E-01   19.3     0.00019361     -1102.6544650067 -1.10E+03
     2 OT DIIS     0.80E-01    7.8     0.00011267     -1102.6553349944 -8.70E-04
     3 OT DIIS     0.80E-01    8.0     0.00004336     -1102.6557823845 -4.47E-04
     4 OT DIIS     0.80E-01    8.4     0.00001677     -1102.6558505904 -6.82E-05
     5 OT DIIS     0.80E-01    8.0     0.00000434     -1102.6558618148 -1.12E-05
     6 OT DIIS     0.80E-01    8.1     0.00000173     -1102.6558624763 -6.62E-07
     7 OT DIIS     0.80E-01    8.3     0.00000068     -1102.6558625818 -1.06E-07

  *** SCF run converged in     7 steps ***


  Electronic density on regular grids:       -511.9999999888        0.0000000112
  Core density on regular grids:              511.9999999832       -0.0000000168
  Total charge density on r-space grids:       -0.0000000056
  Total charge density g-space grids:          -0.0000000056

  Overlap energy of the core charge distribution:               0.00000149167359
  Self energy of the core charge distribution:              -2838.21791979120962
  Core Hamiltonian energy:                                    827.80093442639600
  Hartree energy:                                            1179.31888483431976
  Exchange-correlation energy:                               -271.31214076360112
  Dispersion energy:                                           -0.24562277941011

  Total energy:                                             -1102.65586258183134

  outer SCF iter =    1 RMS gradient =   0.68E-06 energy =      -1102.6558625818
  outer SCF loop converged in   1 iterations or    7 steps


 ENERGY| Total FORCE_EVAL ( QS ) energy [a.u.]:            -1102.655862599757256

 MD| ***************************************************************************
 MD| Step number                                                               4
 MD| Time [fs]                                                          2.000000
 MD| Conserved quantity [hartree]                            -0.110235659345E+04
 MD| ---------------------------------------------------------------------------
 MD|                                          Instantaneous             Averages
 MD| CPU time per MD step [s]                     84.175061           380.184730
 MD| Energy drift per atom [K]          -0.124616541147E+01  -0.788950923090E+00
 MD| Potential energy [hartree]         -0.110265586260E+04  -0.110264684003E+04
 MD| Kinetic energy [hartree]            0.282889483215E+00   0.280273238034E+00
 MD| Temperature [K]                             310.171274           307.302719
 MD| ***************************************************************************

 Number of electrons:                                                        512
 Number of occupied orbitals:                                                256
 Number of molecular orbitals:                                               256

 Number of orbital functions:                                               1472
 Number of independent orbital functions:                                   1472

 Extrapolation method: ASPC


 SCF WAVEFUNCTION OPTIMIZATION

  ----------------------------------- OT ---------------------------------------
  Minimizer      : DIIS                : direct inversion
                                         in the iterative subspace
                                         using   7 DIIS vectors
                                         safer DIIS on
  Preconditioner : FULL_SINGLE_INVERSE : inversion of 
                                         H + eS - 2*(Sc)(c^T*H*c+const)(Sc)^T
  Precond_solver : DEFAULT
  stepsize       :    0.08000000                  energy_gap     :    0.08000000
  eps_taylor     :   0.10000E-15                  max_taylor     :             4
  ----------------------------------- OT ---------------------------------------

  Step     Update method      Time    Convergence         Total energy    Change
  ------------------------------------------------------------------------------
     1 OT DIIS     0.80E-01   18.0     0.00022861     -1102.6514523416 -1.10E+03
     2 OT DIIS     0.80E-01    8.1     0.00013256     -1102.6526648239 -1.21E-03
     3 OT DIIS     0.80E-01    7.9     0.00005022     -1102.6532843304 -6.20E-04
     4 OT DIIS     0.80E-01    8.3     0.00001980     -1102.6533749800 -9.06E-05
     5 OT DIIS     0.80E-01    8.2     0.00000507     -1102.6533906478 -1.57E-05
     6 OT DIIS     0.80E-01    7.9     0.00000207     -1102.6533915444 -8.97E-07
     7 OT DIIS     0.80E-01    8.0     0.00000080     -1102.6533916963 -1.52E-07

  *** SCF run converged in     7 steps ***


  Electronic density on regular grids:       -511.9999999888        0.0000000112
  Core density on regular grids:              511.9999999832       -0.0000000168
  Total charge density on r-space grids:       -0.0000000056
  Total charge density g-space grids:          -0.0000000056

  Overlap energy of the core charge distribution:               0.00000131041750
  Self energy of the core charge distribution:              -2838.21791979120962
  Core Hamiltonian energy:                                    827.10380720904868
  Hartree energy:                                            1179.81421392478615
  Exchange-correlation energy:                               -271.10793511464033
  Dispersion energy:                                           -0.24555923466415

  Total energy:                                             -1102.65339169626168

  outer SCF iter =    1 RMS gradient =   0.80E-06 energy =      -1102.6533916963
  outer SCF loop converged in   1 iterations or    7 steps


 ENERGY| Total FORCE_EVAL ( QS ) energy [a.u.]:            -1102.653391721298703

 MD| ***************************************************************************
 MD| Step number                                                               5
 MD| Time [fs]                                                          2.500000
 MD| Conserved quantity [hartree]                            -0.110235650540E+04
 MD| ---------------------------------------------------------------------------
 MD|                                          Instantaneous             Averages
 MD| CPU time per MD step [s]                     84.292007           321.006186
 MD| Energy drift per atom [K]          -0.110134841012E+01  -0.851430420496E+00
 MD| Potential energy [hartree]         -0.110265339172E+04  -0.110264815037E+04
 MD| Kinetic energy [hartree]            0.294372845708E+00   0.283093159568E+00
 MD| Temperature [K]                             322.762089           310.394593
 MD| ***************************************************************************

 Number of electrons:                                                        512
 Number of occupied orbitals:                                                256
 Number of molecular orbitals:                                               256

 Number of orbital functions:                                               1472
 Number of independent orbital functions:                                   1472

 Extrapolation method: ASPC


 SCF WAVEFUNCTION OPTIMIZATION

  ----------------------------------- OT ---------------------------------------
  Minimizer      : DIIS                : direct inversion
                                         in the iterative subspace
                                         using   7 DIIS vectors
                                         safer DIIS on
  Preconditioner : FULL_SINGLE_INVERSE : inversion of 
                                         H + eS - 2*(Sc)(c^T*H*c+const)(Sc)^T
  Precond_solver : DEFAULT
  stepsize       :    0.08000000                  energy_gap     :    0.08000000
  eps_taylor     :   0.10000E-15                  max_taylor     :             4
  ----------------------------------- OT ---------------------------------------

  Step     Update method      Time    Convergence         Total energy    Change
  ------------------------------------------------------------------------------
     1 OT DIIS     0.80E-01   18.7     0.00020953     -1102.6424123316 -1.10E+03
     2 OT DIIS     0.80E-01    8.1     0.00012081     -1102.6434263953 -1.01E-03
     3 OT DIIS     0.80E-01    8.2     0.00004715     -1102.6439331644 -5.07E-04
     4 OT DIIS     0.80E-01    8.3     0.00001836     -1102.6440126543 -7.95E-05
     5 OT DIIS     0.80E-01    8.1     0.00000474     -1102.6440261560 -1.35E-05
     6 OT DIIS     0.80E-01    8.1     0.00000188     -1102.6440269497 -7.94E-07
     7 OT DIIS     0.80E-01    8.3     0.00000073     -1102.6440270740 -1.24E-07

  *** SCF run converged in     7 steps ***


  Electronic density on regular grids:       -511.9999999888        0.0000000112
  Core density on regular grids:              511.9999999831       -0.0000000169
  Total charge density on r-space grids:       -0.0000000057
  Total charge density g-space grids:          -0.0000000057

  Overlap energy of the core charge distribution:               0.00000119038032
  Self energy of the core charge distribution:              -2838.21791979120962
  Core Hamiltonian energy:                                    826.46721337942438
  Hartree energy:                                            1180.27127616443295
  Exchange-correlation energy:                               -270.91907959552793
  Dispersion energy:                                           -0.24551842150473

  Total energy:                                             -1102.64402707400473

  outer SCF iter =    1 RMS gradient =   0.73E-06 energy =      -1102.6440270740
  outer SCF loop converged in   1 iterations or    7 steps


 ENERGY| Total FORCE_EVAL ( QS ) energy [a.u.]:            -1102.644027094365583

 MD| ***************************************************************************
 MD| Step number                                                               6
 MD| Time [fs]                                                          3.000000
 MD| Conserved quantity [hartree]                            -0.110235629211E+04
 MD| ---------------------------------------------------------------------------
 MD|                                          Instantaneous             Averages
 MD| CPU time per MD step [s]                     85.423054           281.742331
 MD| Energy drift per atom [K]          -0.750564364798E+00  -0.834619411213E+00
 MD| Potential energy [hartree]         -0.110264402709E+04  -0.110264746316E+04
 MD| Kinetic energy [hartree]            0.293202259578E+00   0.284778009570E+00
 MD| Temperature [K]                             321.478612           312.241930
 MD| ***************************************************************************

 Number of electrons:                                                        512
 Number of occupied orbitals:                                                256
 Number of molecular orbitals:                                               256

 Number of orbital functions:                                               1472
 Number of independent orbital functions:                                   1472

 Extrapolation method: ASPC


 SCF WAVEFUNCTION OPTIMIZATION

  ----------------------------------- OT ---------------------------------------
  Minimizer      : DIIS                : direct inversion
                                         in the iterative subspace
                                         using   7 DIIS vectors
                                         safer DIIS on
  Preconditioner : FULL_SINGLE_INVERSE : inversion of 
                                         H + eS - 2*(Sc)(c^T*H*c+const)(Sc)^T
  Precond_solver : DEFAULT
  stepsize       :    0.08000000                  energy_gap     :    0.08000000
  eps_taylor     :   0.10000E-15                  max_taylor     :             4
  ----------------------------------- OT ---------------------------------------

  Step     Update method      Time    Convergence         Total energy    Change
  ------------------------------------------------------------------------------
     1 OT DIIS     0.80E-01   20.3     0.00020751     -1102.6294593485 -1.10E+03
     2 OT DIIS     0.80E-01    7.9     0.00012025     -1102.6304599600 -1.00E-03
     3 OT DIIS     0.80E-01    7.8     0.00004428     -1102.6309732018 -5.13E-04
     4 OT DIIS     0.80E-01    8.2     0.00001799     -1102.6310430060 -6.98E-05
     5 OT DIIS     0.80E-01    7.9     0.00000474     -1102.6310559827 -1.30E-05
     6 OT DIIS     0.80E-01    8.3     0.00000188     -1102.6310567806 -7.98E-07
     7 OT DIIS     0.80E-01    8.6     0.00000076     -1102.6310569051 -1.25E-07

  *** SCF run converged in     7 steps ***


  Electronic density on regular grids:       -511.9999999889        0.0000000111
  Core density on regular grids:              511.9999999832       -0.0000000168
  Total charge density on r-space grids:       -0.0000000057
  Total charge density g-space grids:          -0.0000000057

  Overlap energy of the core charge distribution:               0.00000109908053
  Self energy of the core charge distribution:              -2838.21791979120962
  Core Hamiltonian energy:                                    825.89433110185701
  Hartree energy:                                            1180.68661333251794
  Exchange-correlation energy:                               -270.74857996337357
  Dispersion energy:                                           -0.24550268401076

  Total energy:                                             -1102.63105690513839

  outer SCF iter =    1 RMS gradient =   0.76E-06 energy =      -1102.6310569051
  outer SCF loop converged in   1 iterations or    7 steps


 ENERGY| Total FORCE_EVAL ( QS ) energy [a.u.]:            -1102.631056927460804

 MD| ***************************************************************************
 MD| Step number                                                               7
 MD| Time [fs]                                                          3.500000
 MD| Conserved quantity [hartree]                            -0.110235602313E+04
 MD| ---------------------------------------------------------------------------
 MD|                                          Instantaneous             Averages
 MD| CPU time per MD step [s]                     86.337027           253.827287
 MD| Energy drift per atom [K]          -0.308179571485E+00  -0.759413719823E+00
 MD| Potential energy [hartree]         -0.110263105693E+04  -0.110264511941E+04
 MD| Kinetic energy [hartree]            0.275739442563E+00   0.283486785712E+00
 MD| Temperature [K]                             302.331685           310.826180
 MD| ***************************************************************************

 Number of electrons:                                                        512
 Number of occupied orbitals:                                                256
 Number of molecular orbitals:                                               256

 Number of orbital functions:                                               1472
 Number of independent orbital functions:                                   1472

 Extrapolation method: ASPC


 SCF WAVEFUNCTION OPTIMIZATION

  ----------------------------------- OT ---------------------------------------
  Minimizer      : DIIS                : direct inversion
                                         in the iterative subspace
                                         using   7 DIIS vectors
                                         safer DIIS on
  Preconditioner : FULL_SINGLE_INVERSE : inversion of 
                                         H + eS - 2*(Sc)(c^T*H*c+const)(Sc)^T
  Precond_solver : DEFAULT
  stepsize       :    0.08000000                  energy_gap     :    0.08000000
  eps_taylor     :   0.10000E-15                  max_taylor     :             4
  ----------------------------------- OT ---------------------------------------

  Step     Update method      Time    Convergence         Total energy    Change
  ------------------------------------------------------------------------------
     1 OT DIIS     0.80E-01   19.7     0.00019687     -1102.6183234831 -1.10E+03
     2 OT DIIS     0.80E-01    8.3     0.00011474     -1102.6192250313 -9.02E-04
     3 OT DIIS     0.80E-01    8.4     0.00004320     -1102.6196920607 -4.67E-04
     4 OT DIIS     0.80E-01    8.1     0.00001706     -1102.6197585653 -6.65E-05
     5 OT DIIS     0.80E-01    8.1     0.00000463     -1102.6197701472 -1.16E-05
     6 OT DIIS     0.80E-01    8.3     0.00000190     -1102.6197708951 -7.48E-07
     7 OT DIIS     0.80E-01    8.1     0.00000075     -1102.6197710208 -1.26E-07

  *** SCF run converged in     7 steps ***


  Electronic density on regular grids:       -511.9999999889        0.0000000111
  Core density on regular grids:              511.9999999832       -0.0000000168
  Total charge density on r-space grids:       -0.0000000057
  Total charge density g-space grids:          -0.0000000057

  Overlap energy of the core charge distribution:               0.00000105926528
  Self energy of the core charge distribution:              -2838.21791979120962
  Core Hamiltonian energy:                                    825.52878487519195
  Hartree energy:                                            1180.95443025375880
  Exchange-correlation energy:                               -270.63956633586258
  Dispersion energy:                                           -0.24550108190954

  Total energy:                                             -1102.61977102076594

  outer SCF iter =    1 RMS gradient =   0.75E-06 energy =      -1102.6197710208
  outer SCF loop converged in   1 iterations or    7 steps


 ENERGY| Total FORCE_EVAL ( QS ) energy [a.u.]:            -1102.619771042450566

 MD| ***************************************************************************
 MD| Step number                                                               8
 MD| Time [fs]                                                          4.000000
 MD| Conserved quantity [hartree]                            -0.110235579590E+04
 MD| ---------------------------------------------------------------------------
 MD|                                          Instantaneous             Averages
 MD| CPU time per MD step [s]                     86.632078           232.927886
 MD| Energy drift per atom [K]           0.655384185369E-01  -0.656294702528E+00
 MD| Potential energy [hartree]         -0.110261977104E+04  -0.110264195086E+04
 MD| Kinetic energy [hartree]            0.264614578241E+00   0.281127759778E+00
 MD| Temperature [K]                             290.133942           308.239651
 MD| ***************************************************************************

 Number of electrons:                                                        512
 Number of occupied orbitals:                                                256
 Number of molecular orbitals:                                               256

 Number of orbital functions:                                               1472
 Number of independent orbital functions:                                   1472

 Extrapolation method: ASPC


 SCF WAVEFUNCTION OPTIMIZATION

  ----------------------------------- OT ---------------------------------------
  Minimizer      : DIIS                : direct inversion
                                         in the iterative subspace
                                         using   7 DIIS vectors
                                         safer DIIS on
  Preconditioner : FULL_SINGLE_INVERSE : inversion of 
                                         H + eS - 2*(Sc)(c^T*H*c+const)(Sc)^T
  Precond_solver : DEFAULT
  stepsize       :    0.08000000                  energy_gap     :    0.08000000
  eps_taylor     :   0.10000E-15                  max_taylor     :             4
  ----------------------------------- OT ---------------------------------------

  Step     Update method      Time    Convergence         Total energy    Change
  ------------------------------------------------------------------------------
     1 OT DIIS     0.80E-01   19.5     0.00020268     -1102.6120648135 -1.10E+03
     2 OT DIIS     0.80E-01    8.0     0.00011995     -1102.6130303276 -9.66E-04
     3 OT DIIS     0.80E-01    8.3     0.00004218     -1102.6135587301 -5.28E-04
     4 OT DIIS     0.80E-01    8.0     0.00001726     -1102.6136222586 -6.35E-05
     5 OT DIIS     0.80E-01    8.2     0.00000455     -1102.6136340690 -1.18E-05
     6 OT DIIS     0.80E-01    8.2     0.00000184     -1102.6136347889 -7.20E-07
     7 OT DIIS     0.80E-01    8.4     0.00000074     -1102.6136349060 -1.17E-07

  *** SCF run converged in     7 steps ***


  Electronic density on regular grids:       -511.9999999889        0.0000000111
  Core density on regular grids:              511.9999999831       -0.0000000169
  Total charge density on r-space grids:       -0.0000000058
  Total charge density g-space grids:          -0.0000000058

  Overlap energy of the core charge distribution:               0.00000104244378
  Self energy of the core charge distribution:              -2838.21791979120962
  Core Hamiltonian energy:                                    825.34019662479670
  Hartree energy:                                            1181.09356578699999
  Exchange-correlation energy:                               -270.58396488444356
  Dispersion energy:                                           -0.24551368457052

  Total energy:                                             -1102.61363490598342

  outer SCF iter =    1 RMS gradient =   0.74E-06 energy =      -1102.6136349060
  outer SCF loop converged in   1 iterations or    7 steps


 ENERGY| Total FORCE_EVAL ( QS ) energy [a.u.]:            -1102.613634926849500

 MD| ***************************************************************************
 MD| Step number                                                               9
 MD| Time [fs]                                                          4.500000
 MD| Conserved quantity [hartree]                            -0.110235568947E+04
 MD| ---------------------------------------------------------------------------
 MD|                                          Instantaneous             Averages
 MD| CPU time per MD step [s]                     85.388001           216.534565
 MD| Energy drift per atom [K]           0.240579670945E+00  -0.556641994364E+00
 MD| Potential energy [hartree]         -0.110261363493E+04  -0.110263880465E+04
 MD| Kinetic energy [hartree]            0.268857947775E+00   0.279764447333E+00
 MD| Temperature [K]                             294.786541           306.744861
 MD| ***************************************************************************

 Number of electrons:                                                        512
 Number of occupied orbitals:                                                256
 Number of molecular orbitals:                                               256

 Number of orbital functions:                                               1472
 Number of independent orbital functions:                                   1472

 Extrapolation method: ASPC


 SCF WAVEFUNCTION OPTIMIZATION

  ----------------------------------- OT ---------------------------------------
  Minimizer      : DIIS                : direct inversion
                                         in the iterative subspace
                                         using   7 DIIS vectors
                                         safer DIIS on
  Preconditioner : FULL_SINGLE_INVERSE : inversion of 
                                         H + eS - 2*(Sc)(c^T*H*c+const)(Sc)^T
  Precond_solver : DEFAULT
  stepsize       :    0.08000000                  energy_gap     :    0.08000000
  eps_taylor     :   0.10000E-15                  max_taylor     :             4
  ----------------------------------- OT ---------------------------------------

  Step     Update method      Time    Convergence         Total energy    Change
  ------------------------------------------------------------------------------
     1 OT DIIS     0.80E-01   18.3     0.00021194     -1102.6103823923 -1.10E+03
     2 OT DIIS     0.80E-01    8.2     0.00012483     -1102.6114291395 -1.05E-03
     3 OT DIIS     0.80E-01    8.0     0.00004897     -1102.6119815428 -5.52E-04
     4 OT DIIS     0.80E-01    8.4     0.00001829     -1102.6120684467 -8.69E-05
     5 OT DIIS     0.80E-01    8.1     0.00000506     -1102.6120815828 -1.31E-05
     6 OT DIIS     0.80E-01    8.2     0.00000209     -1102.6120824521 -8.69E-07
     7 OT DIIS     0.80E-01    8.4     0.00000081     -1102.6120826043 -1.52E-07

  *** SCF run converged in     7 steps ***


  Electronic density on regular grids:       -511.9999999888        0.0000000112
  Core density on regular grids:              511.9999999832       -0.0000000168
  Total charge density on r-space grids:       -0.0000000056
  Total charge density g-space grids:          -0.0000000056

  Overlap energy of the core charge distribution:               0.00000102618400
  Self energy of the core charge distribution:              -2838.21791979120962
  Core Hamiltonian energy:                                    825.28089391017215
  Hartree energy:                                            1181.13858783736373
  Exchange-correlation energy:                               -270.56809735569379
  Dispersion energy:                                           -0.24554823116416

  Total energy:                                             -1102.61208260434773

  outer SCF iter =    1 RMS gradient =   0.81E-06 energy =      -1102.6120826043
  outer SCF loop converged in   1 iterations or    7 steps

  
  Eigenvalues of the occupied subspace spin            1
 ---------------------------------------------
      -0.81981041     -0.81465506     -0.80674250     -0.80446189
      -0.80207351     -0.79840247     -0.79649248     -0.79588138
      -0.79433906     -0.79257723     -0.79170582     -0.79071231
      -0.78971864     -0.78888634     -0.78816903     -0.78764800
      -0.78601777     -0.78525247     -0.78406059     -0.78227548
      -0.78179238     -0.78116113     -0.78043886     -0.77946957
      -0.77924773     -0.77873447     -0.77753857     -0.77607898
      -0.77455524     -0.77440453     -0.77433920     -0.77285404
      -0.77167180     -0.77114795     -0.77043591     -0.76960455
      -0.76913236     -0.76894320     -0.76724722     -0.76705077
      -0.76501220     -0.76463246     -0.76395378     -0.76335799
      -0.76247704     -0.76159912     -0.76060860     -0.76040065
      -0.75946285     -0.75848877     -0.75817329     -0.75714239
      -0.75615777     -0.75514915     -0.75472627     -0.75318107
      -0.74868412     -0.74805163     -0.74691547     -0.74556520
      -0.74399931     -0.74288082     -0.73738218     -0.72889259
      -0.37452740     -0.36547239     -0.35937952     -0.35920158
      -0.35781383     -0.35442113     -0.35254211     -0.35216327
      -0.35069489     -0.35020473     -0.34844301     -0.34798883
      -0.34580221     -0.34406974     -0.34378099     -0.34258364
      -0.34068219     -0.34017763     -0.33957544     -0.33871808
      -0.33833045     -0.33772727     -0.33637551     -0.33565769
      -0.33477578     -0.33458717     -0.33405235     -0.33312118
      -0.33252458     -0.33183551     -0.33123467     -0.33085496
      -0.33037129     -0.32939529     -0.32863187     -0.32794463
      -0.32753866     -0.32582515     -0.32531526     -0.32437885
      -0.32288373     -0.32193945     -0.32066010     -0.31936947
      -0.31829436     -0.31780274     -0.31757765     -0.31720890
      -0.31593916     -0.31574534     -0.31520344     -0.31505696
      -0.31427491     -0.31318850     -0.31178593     -0.31102949
      -0.31071475     -0.30994207     -0.30559375     -0.30497233
      -0.30290081     -0.30118102     -0.30040944     -0.30018095
      -0.26810506     -0.26518314     -0.26100535     -0.25822528
      -0.25445318     -0.25022319     -0.24906369     -0.24891591
      -0.24650207     -0.24400882     -0.24170695     -0.24067164
      -0.23775318     -0.23721597     -0.23403423     -0.23275152
      -0.23160071     -0.23025588     -0.22862782     -0.22814562
      -0.22567605     -0.22322472     -0.22090418     -0.22053922
      -0.21945904     -0.21786499     -0.21559175     -0.21354962
      -0.21148523     -0.21082773     -0.20935572     -0.20870638
      -0.20683151     -0.20588501     -0.20402642     -0.20322264
      -0.20287204     -0.20066625     -0.19932192     -0.19745510
      -0.19628830     -0.19436393     -0.19363972     -0.19252351
      -0.19083388     -0.18990444     -0.18868414     -0.18809063
      -0.18740679     -0.18669636     -0.18446243     -0.18355279
      -0.18146348     -0.17997169     -0.17850080     -0.17625395
      -0.17478743     -0.17340578     -0.17062493     -0.16991148
      -0.16905942     -0.16603394     -0.16322870     -0.15957762
      -0.15358916     -0.15067187     -0.14757118     -0.14631691
      -0.14442448     -0.14433190     -0.14250079     -0.14169546
      -0.14091901     -0.14062347     -0.13929307     -0.13861418
      -0.13818378     -0.13770782     -0.13658316     -0.13648388
      -0.13595650     -0.13526091     -0.13485556     -0.13437031
      -0.13421153     -0.13368860     -0.13335669     -0.13182044
      -0.13169540     -0.13085268     -0.13060917     -0.12976401
      -0.12917480     -0.12874856     -0.12864568     -0.12740287
      -0.12721676     -0.12674530     -0.12631050     -0.12593325
      -0.12562122     -0.12509179     -0.12378892     -0.12324310
      -0.12224741     -0.12088953     -0.11992835     -0.11961328
      -0.11894941     -0.11836063     -0.11818207     -0.11762218
      -0.11727217     -0.11694585     -0.11615173     -0.11507433
      -0.11445777     -0.11340697     -0.11251745     -0.11234411
      -0.11117165     -0.11009041     -0.10840369     -0.10415203
      -0.10320399     -0.10246858     -0.09604900     -0.09483919
 Fermi Energy [eV] :   -2.580706
  
  Lowest Eigenvalues of the unoccupied subspace spin            1
 -----------------------------------------------------
  Reached convergence in           89  iterations 
       0.07040697      0.11488087      0.11862236      0.12120713
  
 HOMO - LUMO gap [eV] :    4.496577

 ENERGY| Total FORCE_EVAL ( QS ) energy [a.u.]:            -1102.612082629094630

 MD| ***************************************************************************
 MD| Step number                                                              10
 MD| Time [fs]                                                          5.000000
 MD| Conserved quantity [hartree]                            -0.110235566673E+04
 MD| ---------------------------------------------------------------------------
 MD|                                          Instantaneous             Averages
 MD| CPU time per MD step [s]                    591.727293           254.053838
 MD| Energy drift per atom [K]           0.277984981571E+00  -0.473179296771E+00
 MD| Potential energy [hartree]         -0.110261208263E+04  -0.110263613245E+04
 MD| Kinetic energy [hartree]            0.262607548452E+00   0.278048757445E+00
 MD| Temperature [K]                             287.933355           304.863710
 MD| ***************************************************************************

 Number of electrons:                                                        512
 Number of occupied orbitals:                                                256
 Number of molecular orbitals:                                               256

 Number of orbital functions:                                               1472
 Number of independent orbital functions:                                   1472

 Extrapolation method: ASPC


 SCF WAVEFUNCTION OPTIMIZATION

  ----------------------------------- OT ---------------------------------------
  Minimizer      : DIIS                : direct inversion
                                         in the iterative subspace
                                         using   7 DIIS vectors
                                         safer DIIS on
  Preconditioner : FULL_SINGLE_INVERSE : inversion of 
                                         H + eS - 2*(Sc)(c^T*H*c+const)(Sc)^T
  Precond_solver : DEFAULT
  stepsize       :    0.08000000                  energy_gap     :    0.08000000
  eps_taylor     :   0.10000E-15                  max_taylor     :             4
  ----------------------------------- OT ---------------------------------------

  Step     Update method      Time    Convergence         Total energy    Change
  ------------------------------------------------------------------------------
     1 OT DIIS     0.80E-01   19.4     0.00022093     -1102.6149814275 -1.10E+03
     2 OT DIIS     0.80E-01    8.1     0.00012735     -1102.6161086215 -1.13E-03
     3 OT DIIS     0.80E-01    8.2     0.00004963     -1102.6166715152 -5.63E-04
     4 OT DIIS     0.80E-01    8.3     0.00001924     -1102.6167599048 -8.84E-05
     5 OT DIIS     0.80E-01    7.9     0.00000530     -1102.6167746361 -1.47E-05
     6 OT DIIS     0.80E-01    8.0     0.00000216     -1102.6167756043 -9.68E-07
     7 OT DIIS     0.80E-01    8.1     0.00000083     -1102.6167757658 -1.62E-07

  *** SCF run converged in     7 steps ***


  Electronic density on regular grids:       -511.9999999887        0.0000000113
  Core density on regular grids:              511.9999999832       -0.0000000168
  Total charge density on r-space grids:       -0.0000000055
  Total charge density g-space grids:          -0.0000000055

  Overlap energy of the core charge distribution:               0.00000103738906
  Self energy of the core charge distribution:              -2838.21791979120962
  Core Hamiltonian energy:                                    825.49455086570447
  Hartree energy:                                            1180.98700399652648
  Exchange-correlation energy:                               -270.63481027385922
  Dispersion energy:                                           -0.24560160035062

  Total energy:                                             -1102.61677576579950

  outer SCF iter =    1 RMS gradient =   0.83E-06 energy =      -1102.6167757658
  outer SCF loop converged in   1 iterations or    7 steps


 ENERGY| Total FORCE_EVAL ( QS ) energy [a.u.]:            -1102.616775791589816

 MD| ***************************************************************************
 MD| Step number                                                              11
 MD| Time [fs]                                                          5.500000
 MD| Conserved quantity [hartree]                            -0.110235578325E+04
 MD| ---------------------------------------------------------------------------
 MD|                                          Instantaneous             Averages
 MD| CPU time per MD step [s]                     85.642048           238.743675
 MD| Energy drift per atom [K]           0.863415934818E-01  -0.422313761293E+00
 MD| Potential energy [hartree]         -0.110261677579E+04  -0.110263437275E+04
 MD| Kinetic energy [hartree]            0.288697191582E+00   0.279016796912E+00
 MD| Temperature [K]                             316.539076           305.925107
 MD| ***************************************************************************

 Number of electrons:                                                        512
 Number of occupied orbitals:                                                256
 Number of molecular orbitals:                                               256

 Number of orbital functions:                                               1472
 Number of independent orbital functions:                                   1472

 Extrapolation method: ASPC


 SCF WAVEFUNCTION OPTIMIZATION

  ----------------------------------- OT ---------------------------------------
  Minimizer      : DIIS                : direct inversion
                                         in the iterative subspace
                                         using   7 DIIS vectors
                                         safer DIIS on
  Preconditioner : FULL_SINGLE_INVERSE : inversion of 
                                         H + eS - 2*(Sc)(c^T*H*c+const)(Sc)^T
  Precond_solver : DEFAULT
  stepsize       :    0.08000000                  energy_gap     :    0.08000000
  eps_taylor     :   0.10000E-15                  max_taylor     :             4
  ----------------------------------- OT ---------------------------------------

  Step     Update method      Time    Convergence         Total energy    Change
  ------------------------------------------------------------------------------
     1 OT DIIS     0.80E-01   16.9     0.00022691     -1102.6209408150 -1.10E+03
     2 OT DIIS     0.80E-01    8.0     0.00012998     -1102.6221244171 -1.18E-03
     3 OT DIIS     0.80E-01    8.0     0.00005177     -1102.6227012317 -5.77E-04
     4 OT DIIS     0.80E-01    8.3     0.00001972     -1102.6227966311 -9.54E-05
     5 OT DIIS     0.80E-01    8.4     0.00000556     -1102.6228120010 -1.54E-05
     6 OT DIIS     0.80E-01    8.1     0.00000227     -1102.6228130544 -1.05E-06
     7 OT DIIS     0.80E-01    8.2     0.00000084     -1102.6228132335 -1.79E-07

  *** SCF run converged in     7 steps ***


  Electronic density on regular grids:       -511.9999999888        0.0000000112
  Core density on regular grids:              511.9999999832       -0.0000000168
  Total charge density on r-space grids:       -0.0000000056
  Total charge density g-space grids:          -0.0000000056

  Overlap energy of the core charge distribution:               0.00000104995800
  Self energy of the core charge distribution:              -2838.21791979120962
  Core Hamiltonian energy:                                    825.71899220686703
  Hartree energy:                                            1180.82655293748894
  Exchange-correlation energy:                               -270.70480667703907
  Dispersion energy:                                           -0.24563295961067

  Total energy:                                             -1102.62281323354546

  outer SCF iter =    1 RMS gradient =   0.84E-06 energy =      -1102.6228132335
  outer SCF loop converged in   1 iterations or    7 steps


 ENERGY| Total FORCE_EVAL ( QS ) energy [a.u.]:            -1102.622813259867144

 MD| ***************************************************************************
 MD| Step number                                                              12
 MD| Time [fs]                                                          6.000000
 MD| Conserved quantity [hartree]                            -0.110235593795E+04
 MD| ---------------------------------------------------------------------------
 MD|                                          Instantaneous             Averages
 MD| CPU time per MD step [s]                     83.654998           225.819619
 MD| Energy drift per atom [K]          -0.168087411875E+00  -0.401128232175E+00
 MD| Potential energy [hartree]         -0.110262281326E+04  -0.110263340946E+04
 MD| Kinetic energy [hartree]            0.295096610856E+00   0.280356781408E+00
 MD| Temperature [K]                             323.555654           307.394319
 MD| ***************************************************************************

 Number of electrons:                                                        512
 Number of occupied orbitals:                                                256
 Number of molecular orbitals:                                               256

 Number of orbital functions:                                               1472
 Number of independent orbital functions:                                   1472

 Extrapolation method: ASPC


 SCF WAVEFUNCTION OPTIMIZATION

  ----------------------------------- OT ---------------------------------------
  Minimizer      : DIIS                : direct inversion
                                         in the iterative subspace
                                         using   7 DIIS vectors
                                         safer DIIS on
  Preconditioner : FULL_SINGLE_INVERSE : inversion of 
                                         H + eS - 2*(Sc)(c^T*H*c+const)(Sc)^T
  Precond_solver : DEFAULT
  stepsize       :    0.08000000                  energy_gap     :    0.08000000
  eps_taylor     :   0.10000E-15                  max_taylor     :             4
  ----------------------------------- OT ---------------------------------------

  Step     Update method      Time    Convergence         Total energy    Change
  ------------------------------------------------------------------------------
     1 OT DIIS     0.80E-01   18.2     0.00023372     -1102.6272727074 -1.10E+03
     2 OT DIIS     0.80E-01    8.2     0.00013330     -1102.6285248197 -1.25E-03
     3 OT DIIS     0.80E-01    8.3     0.00005373     -1102.6291285342 -6.04E-04
     4 OT DIIS     0.80E-01    8.4     0.00002032     -1102.6292329858 -1.04E-04
     5 OT DIIS     0.80E-01    7.6     0.00000555     -1102.6292493948 -1.64E-05
     6 OT DIIS     0.80E-01    8.0     0.00000230     -1102.6292504428 -1.05E-06
     7 OT DIIS     0.80E-01    7.9     0.00000087     -1102.6292506268 -1.84E-07

  *** SCF run converged in     7 steps ***


  Electronic density on regular grids:       -511.9999999890        0.0000000110
  Core density on regular grids:              511.9999999832       -0.0000000168
  Total charge density on r-space grids:       -0.0000000057
  Total charge density g-space grids:          -0.0000000057

  Overlap energy of the core charge distribution:               0.00000109887464
  Self energy of the core charge distribution:              -2838.21791979120962
[...]
 -                                                                             -
 -                                DBCSR STATISTICS                             -
 -                                                                             -
 -------------------------------------------------------------------------------
 COUNTER                                    TOTAL       BLAS       SMM       ACC
 flops     4 x     4 x     4               963328       0.0%    100.0%      0.0%
 flops     4 x     4 x   232             22197760       0.0%    100.0%      0.0%
 flops     4 x     4 x   248             23728640       0.0%    100.0%      0.0%
 flops   128 x     4 x    36             28569600       0.0%    100.0%      0.0%
 flops   132 x     4 x    36             29462400       0.0%    100.0%      0.0%
 flops     4 x     4 x   240             45926400       0.0%    100.0%      0.0%
 flops   132 x     4 x    32             78566400       0.0%    100.0%      0.0%
 flops   128 x     4 x    32             88506368       0.0%    100.0%      0.0%
 flops   128 x    36 x   232            100491264       0.0%    100.0%      0.0%
 flops   132 x    36 x   232            103631616       0.0%    100.0%      0.0%
 flops   132 x     4 x    64            104755200       0.0%    100.0%      0.0%
 flops   128 x    36 x   248            107421696       0.0%    100.0%      0.0%
 flops   731 x     4 x     4            108024256       0.0%    100.0%      0.0%
 flops   741 x     4 x     4            109502016       0.0%    100.0%      0.0%
 flops   132 x    36 x   248            110778624       0.0%    100.0%      0.0%
 flops   128 x     4 x    64            113901568       0.0%    100.0%      0.0%
 flops   731 x     4 x    36            163159200       0.0%    100.0%      0.0%
 flops   741 x     4 x    36            165391200       0.0%    100.0%      0.0%
 flops   132 x     4 x   232            189868800       0.0%    100.0%      0.0%
 flops   132 x     4 x   248            202963200       0.0%    100.0%      0.0%
 flops   128 x     4 x   232            206446592       0.0%    100.0%      0.0%
 flops   128 x    36 x   240            207912960       0.0%    100.0%      0.0%
 flops   132 x    36 x   240            214410240       0.0%    100.0%      0.0%
 flops   128 x     4 x   248            220684288       0.0%    100.0%      0.0%
 flops   132 x    32 x   232            276350976       0.0%    100.0%      0.0%
 flops   132 x    32 x   248            295409664       0.0%    100.0%      0.0%
 flops   132 x    64 x   232            368467968       0.0%    100.0%      0.0%
 flops   132 x     4 x   240            392832000       0.0%    100.0%      0.0%
 flops   132 x    64 x   248            393879552       0.0%    100.0%      0.0%
 flops   128 x     4 x   240            427130880       0.0%    100.0%      0.0%
 flops   731 x     4 x    32            470272768       0.0%    100.0%      0.0%
 flops   741 x     4 x    32            476706048       0.0%    100.0%      0.0%
 flops   132 x    32 x   240            571760640       0.0%    100.0%      0.0%
 flops   731 x    36 x   232            573899328       0.0%    100.0%      0.0%
 flops   741 x    36 x   232            581750208       0.0%    100.0%      0.0%
 flops   731 x    36 x   248            613478592       0.0%    100.0%      0.0%
 flops   731 x     4 x    64            615303168       0.0%    100.0%      0.0%
 flops   741 x    36 x   248            621870912       0.0%    100.0%      0.0%
 flops   741 x     4 x    64            623720448       0.0%    100.0%      0.0%
 flops   132 x    64 x   240            762347520       0.0%    100.0%      0.0%
 flops   731 x     4 x   232           1051470400       0.0%    100.0%      0.0%
 flops   741 x     4 x   232           1065854400       0.0%    100.0%      0.0%
 flops   731 x     4 x   248           1123985600       0.0%    100.0%      0.0%
 flops   741 x     4 x   248           1139361600       0.0%    100.0%      0.0%
 flops   731 x    36 x   240           1187377920       0.0%    100.0%      0.0%
 flops   741 x    36 x   240           1203621120       0.0%    100.0%      0.0%
 flops   731 x     4 x   240           2175456000       0.0%    100.0%      0.0%
 flops   741 x     4 x   240           2205216000       0.0%    100.0%      0.0%
 flops    32 x    32 x   232           2719678464       0.0%    100.0%      0.0%
 flops    32 x    32 x   248           2907242496       0.0%    100.0%      0.0%
 flops    32 x    32 x   240           5626920960       0.0%    100.0%      0.0%
 flops     5 x     4 x     5           9307335600       0.0%    100.0%      0.0%
 flops    13 x     4 x     5          11897791880       0.0%    100.0%      0.0%
 flops     5 x     4 x    13          11897791880       0.0%    100.0%      0.0%
 flops     5 x    32 x    32          15005122560       0.0%    100.0%      0.0%
 flops    13 x     4 x    13          15168258352       0.0%    100.0%      0.0%
 flops    13 x    32 x    32          19506659328       0.0%    100.0%      0.0%
 flops   128 x    64 x    64          52680458240       0.0%    100.0%      0.0%
 flops   128 x    64 x    32          52680458240       0.0%    100.0%      0.0%
 flops   128 x    32 x    32          52680458240       0.0%    100.0%      0.0%
 flops   128 x    32 x    64          52680458240       0.0%    100.0%      0.0%
 flops   731 x    32 x   232          57840369152       0.0%    100.0%      0.0%
 flops   731 x    64 x   232          58350501888       0.0%    100.0%      0.0%
 flops   741 x    32 x   232          58631619072       0.0%    100.0%      0.0%
 flops   741 x    64 x   232          59148730368       0.0%    100.0%      0.0%
 flops   731 x    32 x   248          61829360128       0.0%    100.0%      0.0%
 flops   731 x    64 x   248          62374674432       0.0%    100.0%      0.0%
 flops   741 x    32 x   248          62675179008       0.0%    100.0%      0.0%
 flops   741 x    64 x   248          63227953152       0.0%    100.0%      0.0%
 flops   128 x    32 x   232          67775299584       0.0%    100.0%      0.0%
 flops   128 x    64 x   232          67864625152       0.0%    100.0%      0.0%
 flops   128 x    32 x   248          72449458176       0.0%    100.0%      0.0%
 flops   128 x    64 x   248          72544944128       0.0%    100.0%      0.0%
 flops     5 x     5 x    64          78159219200       0.0%    100.0%      0.0%
 flops     5 x     5 x    32          78159219200       0.0%    100.0%      0.0%
 flops    13 x     5 x    64          98957015040       0.0%    100.0%      0.0%
 flops    13 x     5 x    32          98957015040       0.0%    100.0%      0.0%
 flops     5 x    13 x    64          99479494400       0.0%    100.0%      0.0%
 flops     5 x    13 x    32          99479494400       0.0%    100.0%      0.0%
 flops   731 x    32 x   240         119669729280       0.0%    100.0%      0.0%
 flops   731 x    64 x   240         120725176320       0.0%    100.0%      0.0%
 flops   741 x    32 x   240         121306798080       0.0%    100.0%      0.0%
 flops   741 x    64 x   240         122376683520       0.0%    100.0%      0.0%
 flops   731 x    32 x    32         128677707776       0.0%    100.0%      0.0%
 flops   731 x    32 x    64         128677707776       0.0%    100.0%      0.0%
 flops   731 x    64 x    32         128677707776       0.0%    100.0%      0.0%
 flops   731 x    64 x    64         128677707776       0.0%    100.0%      0.0%
 flops    13 x    13 x    64         129036350976       0.0%    100.0%      0.0%
 flops    13 x    13 x    32         129036350976       0.0%    100.0%      0.0%
 flops   741 x    64 x    64         130438004736       0.0%    100.0%      0.0%
 flops   741 x    64 x    32         130438004736       0.0%    100.0%      0.0%
 flops   741 x    32 x    32         130438004736       0.0%    100.0%      0.0%
 flops   741 x    32 x    64         130438004736       0.0%    100.0%      0.0%
 flops   128 x    32 x   240         140224757760       0.0%    100.0%      0.0%
 flops   128 x    64 x   240         140409569280       0.0%    100.0%      0.0%
 flops     5 x    32 x     5         714070809600       0.0%    100.0%      0.0%
 flops    13 x    32 x     5         912508446720       0.0%    100.0%      0.0%
 flops     5 x    32 x    13         912508446720       0.0%    100.0%      0.0%
 flops    13 x    32 x    13        1163734108160       0.0%    100.0%      0.0%
 flops inhomo. stacks                847960319232     100.0%      0.0%      0.0%
 flops total                         8.254658E+12      10.3%     89.7%      0.0%
 flops max/rank                      1.032434E+12      10.5%     89.5%      0.0%
 matmuls inhomo. stacks                    163760     100.0%      0.0%      0.0%
 matmuls total                         1262396370       0.0%    100.0%      0.0%
 number of processed stacks               3644230       4.3%     95.7%      0.0%
 average stack size                                     1.0     361.9       0.0
 marketing flops                     9.754079E+12
 -------------------------------------------------------------------------------
 # multiplications                          45085
 max memory usage/rank             549.089280E+06
 # max total images/rank                        3
 # max 3D layers                                1
 # MPI messages exchanged                 4328160
 MPI messages size (bytes):
  total size                       980.906082E+09
  min size                           0.000000E+00
  max size                           1.547208E+06
  average size                     226.633500E+03
 MPI breakdown and total messages size (bytes):
             size <=      128             1519262                  6377088
       128 < size <=     8192              312816               2445397888
      8192 < size <=    32768              570091              14600292224
     32768 < size <=   131072              550745              41642505600
    131072 < size <=  4194304             1375246             922166628032
   4194304 < size <= 16777216                   0                        0
  16777216 < size                               0                        0
 -------------------------------------------------------------------------------

 *** WARNING in dbcsr_mm.F:294 :: Using a non-square number of MPI ranks ***
 *** might lead to poor performance. Used ranks: 12 Suggested: 9 25      ***

 -------------------------------------------------------------------------------
 -                                                                             -
 -                      DBCSR MESSAGE PASSING PERFORMANCE                      -
 -                                                                             -
 -------------------------------------------------------------------------------
 ROUTINE             CALLS      AVE VOLUME [Bytes]
 MP_Bcast              100                     12.
 MP_Allreduce       227990                      8.
 MP_Alltoall        181375                  48557.
 MP_ISend           978302                  99217.
 MP_IRecv           966342                  97328.
 -------------------------------------------------------------------------------

 -------------------------------------------------------------------------------
 -                                                                             -
 -                                GRID STATISTICS                              -
 -                                                                             -
 -------------------------------------------------------------------------------
 LP    KERNEL    OPERATION                                     COUNT     PERCENT
 0     general   collocate                                    364032       0.13%
 0     ortho     integrate                                  39069421      13.97%
 0     ortho     collocate                                  44494057      15.91%
 1     general   integrate                                    364032       0.13%
 1     ortho     integrate                                  52939314      18.93%
 1     ortho     collocate                                  60289814      21.56%
 2     ortho     integrate                                  25410162       9.09%
 2     ortho     collocate                                  28938302      10.35%
 3     ortho     integrate                                  10190027       3.64%
 3     ortho     collocate                                   5427095       1.94%
 4     ortho     integrate                                   7632176       2.73%
 4     ortho     collocate                                    320786       0.11%
 5     ortho     integrate                                   3528140       1.26%
 6     ortho     integrate                                    661704       0.24%
 7     ortho     integrate                                     39110       0.01%
 -------------------------------------------------------------------------------

 MEMORY| Estimated peak process memory [MiB]                                 523

 -------------------------------------------------------------------------------
 -                                                                             -
 -                         MESSAGE PASSING PERFORMANCE                         -
 -                                                                             -
 -------------------------------------------------------------------------------

 ROUTINE             CALLS      AVE VOLUME [Bytes]
 MP_Group                4
 MP_Bcast            43540                   7899.
 MP_Allreduce       117110                   2178.
 MP_Sync              1357
 MP_Alltoall         26836               10544188.
 MP_SendRecv          6952                   4326.
 MP_ISendRecv        85536                 218880.
 MP_Wait            140788
 MP_comm_split        1353
 MP_ISend            46528                 503475.
 MP_IRecv            46528                 503475.
 -------------------------------------------------------------------------------


 -------------------------------------------------------------------------------
 -                                                                             -
 -                           R E F E R E N C E S                               -
 -                                                                             -
 -------------------------------------------------------------------------------
 
 CP2K version 8.0 (Development Version), the CP2K developers group (2020).
 CP2K is freely available from https://www.cp2k.org/ .

 Kuehne,Thomas D.; Iannuzzi,Marcella; Del Ben,Mauro;
 Rybkin,Vladimir V.; Seewald,Patrick; Stein,Frederick; Laino,Teodoro;
 Khaliullin,Rustam Z.; Schuett,Ole; Schiffmann,Florian; Golze,Dorothea;
 Wilhelm,Jan; Chulkov,Sergey; Bani-Hashemian,Mohammad Hossein;
 Weber,Valery; Borstnik,Urban; Taillefumier,Mathieu;
 Jakobovits,Alice Shoshana; Lazzaro,Alfio; Pabst,Hans; Mueller,Tiziano;
 Schade,Robert; Guidon,Manuel; Andermatt,Samuel; Holmberg,Nico;
 Schenter,Gregory K.; Hehn,Anna; Bussy,Augustin; Belleflamme,Fabian;
 Tabacchi,Gloria; Gloess,Andreas; Lass,Michael; Bethune,Iain;
 Mundy,Christopher J.; Plessl,Christian; Watkins,Matt;
 VandeVondele,Joost; Krack,Matthias; Hutter,Juerg. 
 The Journal of Chemical Physics, 152 (19), (2020). 
 CP2K: An electronic structure and molecular dynamics software package -
 Quickstep: Efficient and accurate electronic structure calculations.
 https://doi.org/10.1063/5.0007045

 Goerigk, Lars; Hansen, Andreas; Bauer, Christoph; Ehrlich, Stephan;
 Najibi, Asim; Grimme, Stefan. , 19 (48), (2017). 
 A look at the density functional theory zoo with the advanced GMTKN55 database
 for general main group thermochemistry, kinetics and noncovalent interactions.
 https://doi.org/10.1039/C7CP04913G

 Schuett, Ole; Messmer, Peter; Hutter, Juerg; VandeVondele, Joost. 
 Electronic Structure Calculations on Graphics Processing Units, John
 Wiley & Sons, Ltd, 173-190 (2016). 
 GPU-Accelerated Sparse Matrix-Matrix Multiplication for
 Linear Scaling Density Functional Theory.
 https://doi.org/10.1002/9781118670712.ch8

 Borstnik, U; VandeVondele, J; Weber, V; Hutter, J. 
 PARALLEL COMPUTING, 40 (5-6), 47-58 (2014). 
 Sparse matrix multiplication: The distributed block-compressed sparse
 row library.
 https://doi.org/10.1016/j.parco.2014.03.012

 Hutter, J; Iannuzzi, M; Schiffmann, F; VandeVondele, J. 
 WIREs Comput Mol Sci., 4 (1), 15-25 (2014). 
 CP2K: atomistic simulations of condensed matter systems.
 https://doi.org/10.1002/wcms.1159

 Marek, A; Blum, V; Johanni, R; Havu, V; Lang, B; Auckenthaler, T;
 Heinecke, A; Bungartz, H; Lederer, H. 
 Journal of Physics: Condensed Matter, 26 (21), (2014). 
 The ELPA library: scalable parallel eigenvalue solutions for
 electronic structure
 theory and computational science.
 https://doi.org/10.1088/0953-8984/26/21/213201

 Grimme, S; Ehrlich, S; Goerigk, L. 
 JOURNAL OF COMPUTATIONAL CHEMISTRY, 32, 1456 (2011). 
 Effect of the damping function in dispersion corrected density functional theory.
 https://doi.org/10.1002/jcc.21759

 Grimme, S; Antony, J; Ehrlich, S; Krieg, H. 
 JOURNAL OF CHEMICAL PHYSICS, 132 (15), 154104 (2010). 
 A consistent and accurate ab initio parametrization of density
 functional dispersion correction (DFT-D) for the 94 elements H-Pu.
 https://doi.org/10.1063/1.3382344

 Ceriotti, M; Bussi, G; Parrinello, M. 
 PHYSICAL REVIEW LETTERS, 103 (3), 030603 (2009). 
 Nuclear Quantum Effects in Solids Using a Colored-Noise Thermostat.
 https://doi.org/10.1103/PhysRevLett.103.030603

 Ceriotti, M; Bussi, G; Parrinello, M. 
 PHYSICAL REVIEW LETTERS, 102 (2), 020601 (2009). 
 Langevin equation with colored noise for constant-temperature
 molecular dynamics simulations.
 https://doi.org/10.1103/PhysRevLett.102.020601

 Kuhne, TD; Krack, M; Mohamed, FR; Parrinello, M. 
 PHYSICAL REVIEW LETTERS, 98 (6), 066401 (2007). 
 Efficient and accurate Car-Parrinello-like approach to
 Born-Oppenheimer molecular dynamics.
 https://doi.org/10.1103/PhysRevLett.98.066401

 Krack, M. 
 THEORETICAL CHEMISTRY ACCOUNTS, 114 (1-3), 145-152 (2005). 
 Pseudopotentials for H to Kr optimized for gradient-corrected
 exchange-correlation functionals.
 https://doi.org/10.1007/s00214-005-0655-y

 VandeVondele, J; Krack, M; Mohamed, F; Parrinello, M; Chassaing, T;
 Hutter, J. COMPUTER PHYSICS COMMUNICATIONS, 167 (2), 103-128 (2005). 
 QUICKSTEP: Fast and accurate density functional calculations using a
 mixed Gaussian and plane waves approach.
 https://doi.org/10.1016/j.cpc.2004.12.014

 Frigo, M; Johnson, SG. 
 PROCEEDINGS OF THE IEEE, 93 (2), 216-231 (2005). 
 The design and implementation of FFTW3.
 https://doi.org/10.1109/JPROC.2004.840301

 Kolafa, J. 
 JOURNAL OF COMPUTATIONAL CHEMISTRY, 25 (3), 335-342 (2004). 
 Time-reversible always stable predictor-corrector method for molecular dynamics of polarizable molecules.
 https://doi.org/10.1002/jcc.10385

 VandeVondele, J; Hutter, J. 
 JOURNAL OF CHEMICAL PHYSICS, 118 (10), 4365-4369 (2003). 
 An efficient orbital transformation method for electronic structure
 calculations.
 https://doi.org/10.1063/1.1543154

 Hartwigsen, C; Goedecker, S; Hutter, J. 
 PHYSICAL REVIEW B, 58 (7), 3641-3662 (1998). 
 Relativistic separable dual-space Gaussian pseudopotentials from H to Rn.
 https://doi.org/10.1103/PhysRevB.58.3641

 Lippert, G; Hutter, J; Parrinello, M. 
 MOLECULAR PHYSICS, 92 (3), 477-487 (1997). 
 A hybrid Gaussian and plane wave density functional scheme.
 https://doi.org/10.1080/002689797170220

 Perdew, JP; Burke, K; Ernzerhof, M. 
 PHYSICAL REVIEW LETTERS, 77 (18), 3865-3868 (1996). 
 Generalized gradient approximation made simple.
 https://doi.org/10.1103/PhysRevLett.77.3865

 Goedecker, S; Teter, M; Hutter, J. 
 PHYSICAL REVIEW B, 54 (3), 1703-1710 (1996). 
 Separable dual-space Gaussian pseudopotentials.
 https://doi.org/10.1103/PhysRevB.54.1703

