ITEM: TIMESTEP
100000
ITEM: NUMBER OF ATOMS
400
ITEM: BOX BOUNDS pp pp pp
0.0000000000000000e+00 2.1081851067789195e+01
0.0000000000000000e+00 2.1081851067789195e+01
-5.2704627669472992e-01 5.2704627669472992e-01
ITEM: ATOMS id type xs ys zs
285 1 0.0290755 0.903712 0.5
234 1 0.341608 0.139279 0.5
144 1 0.437321 0.118556 0.5
182 1 0.423491 0.170513 0.5
171 1 0.563415 0.0453047 0.5
190 1 0.612291 0.0242589 0.5
306 1 0.575155 0.100444 0.5
312 1 0.615544 0.070131 0.5
342 1 0.788775 0.0394055 0.5
305 1 0.79319 0.936114 0.5
323 1 0.89482 0.822032 0.5
135 1 0.0860665 0.974373 0.5
84 1 0.103433 0.933603 0.5
91 1 0.160353 0.0190627 0.5
360 1 0.270712 0.0068085 0.5
127 1 0.312491 0.0393313 0.5
298 1 0.359144 0.0893102 0.5
321 1 0.385465 0.125489 0.5
18 1 0.462874 0.0699079 0.5
2 1 0.57105 0.155159 0.5
191 1 0.621073 0.122527 0.5
157 1 0.817848 0.982425 0.5
170 1 0.896159 0.0477095 0.5
344 1 0.926759 0.00614725 0.5
145 1 0.942941 0.0501976 0.5
400 1 0.99801 0.0326165 0.5
300 1 0.00640511 0.979454 0.5
371 1 0.113363 0.035678 0.5
238 1 0.27189 0.0621172 0.5
389 1 0.255088 0.1625 0.5
254 1 0.312918 0.100622 0.5
89 1 0.303601 0.166976 0.5
95 1 0.40499 0.258675 0.5
289 1 0.592555 0.224282 0.5
42 1 0.490802 0.204782 0.5
94 1 0.444859 0.220479 0.5
316 1 0.847744 0.0268265 0.5
138 1 0.848639 0.931061 0.5
115 1 0.231802 0.0366965 0.5
359 1 0.334181 0.211648 0.5
251 1 0.37107 0.173042 0.5
271 1 0.649858 0.216512 0.5
13 1 0.474042 0.160379 0.5
296 1 0.4866 0.112335 0.5
17 1 0.659364 0.0699334 0.5
83 1 0.840124 0.143364 0.5
244 1 0.825589 0.0707463 0.5
14 1 0.866254 0.0944461 0.5
331 1 0.0111152 0.128458 0.5
356 1 0.0654667 0.0545055 0.5
346 1 0.0159866 0.0809266 0.5
383 1 0.0393241 0.0141492 0.5
201 1 0.210682 0.171297 0.5
19 1 0.24278 0.206042 0.5
16 1 0.230555 0.250334 0.5
217 1 0.354509 0.253859 0.5
258 1 0.393279 0.302488 0.5
361 1 0.532732 0.23475 0.5
143 1 0.518204 0.152686 0.5
118 1 0.614208 0.177611 0.5
252 1 0.713047 0.10047 0.5
142 1 0.884892 0.136394 0.5
362 1 0.735042 0.227991 0.5
261 1 0.8029 0.108229 0.5
26 1 0.971168 0.0861685 0.5
79 1 0.920542 0.090662 0.5
1 1 0.147581 0.0668244 0.5
30 1 0.217058 0.111042 0.5
395 1 0.39976 0.212779 0.5
276 1 0.473531 0.301363 0.5
149 1 0.557724 0.197494 0.5
5 1 0.863105 0.979057 0.5
255 1 0.950758 0.12888 0.5
272 1 0.0573911 0.101067 0.5
99 1 0.106232 0.0872581 0.5
375 1 0.194483 0.0724612 0.5
231 1 0.196972 0.214223 0.5
392 1 0.185697 0.25955 0.5
98 1 0.291716 0.224574 0.5
397 1 0.340202 0.317117 0.5
193 1 0.627026 0.255839 0.5
116 1 0.665477 0.161507 0.5
69 1 0.670325 0.116167 0.5
374 1 0.799597 0.37734 0.5
43 1 0.796293 0.155661 0.5
235 1 0.872908 0.19125 0.5
353 1 0.983101 0.168103 0.5
240 1 0.0583415 0.195381 0.5
204 1 0.0789066 0.147952 0.5
260 1 0.122561 0.133969 0.5
266 1 0.2004 0.310162 0.5
194 1 0.295313 0.332415 0.5
330 1 0.309518 0.275973 0.5
304 1 0.481278 0.2536 0.5
125 1 0.531708 0.281622 0.5
188 1 0.699263 0.193304 0.5
209 1 0.712417 0.148675 0.5
391 1 0.755961 0.0747197 0.5
206 1 0.787818 0.268259 0.5
199 1 0.917269 0.169716 0.5
158 1 0.946922 0.204792 0.5
152 1 0.151397 0.299636 0.5
207 1 0.170172 0.114872 0.5
324 1 0.141155 0.247318 0.5
168 1 0.238925 0.337875 0.5
320 1 0.374055 0.34784 0.5
257 1 0.563544 0.322841 0.5
163 1 0.664194 0.279671 0.5
150 1 0.690106 0.242397 0.5
221 1 0.735464 0.276324 0.5
110 1 0.755315 0.129724 0.5
4 1 0.886073 0.240932 0.5
119 1 0.940533 0.254371 0.5
107 1 0.0127248 0.211083 0.5
270 1 1.0002 0.265924 0.5
101 1 0.0461294 0.244349 0.5
394 1 0.107279 0.187513 0.5
365 1 0.158772 0.185907 0.5
31 1 0.198884 0.383677 0.5
292 1 0.263491 0.289295 0.5
63 1 0.5067 0.336301 0.5
223 1 0.583053 0.27657 0.5
176 1 0.704686 0.313662 0.5
310 1 0.745048 0.182029 0.5
141 1 0.781108 0.216486 0.5
195 1 0.857968 0.31926 0.5
340 1 0.825627 0.199763 0.5
267 1 0.951045 0.325213 0.5
173 1 0.0750478 0.326133 0.5
64 1 0.0418453 0.290151 0.5
241 1 0.147132 0.386195 0.5
390 1 0.459038 0.34542 0.5
40 1 0.611682 0.315699 0.5
274 1 0.756602 0.318317 0.5
41 1 0.795742 0.423203 0.5
293 1 0.832016 0.253767 0.5
399 1 0.812316 0.323818 0.5
314 1 0.0911315 0.238372 0.5
112 1 0.171069 0.347423 0.5
265 1 0.251837 0.384346 0.5
384 1 0.44242 0.404883 0.5
378 1 0.418447 0.36614 0.5
268 1 0.600598 0.416532 0.5
237 1 0.648311 0.417332 0.5
85 1 0.658185 0.350093 0.5
214 1 0.856122 0.369993 0.5
132 1 0.929604 0.380983 0.5
139 1 0.97171 0.365922 0.5
230 1 0.900167 0.335493 0.5
250 1 0.00694405 0.316401 0.5
239 1 0.0859871 0.420833 0.5
213 1 0.0971343 0.283643 0.5
78 1 0.124541 0.339147 0.5
81 1 0.276467 0.424248 0.5
184 1 0.341755 0.438443 0.5
220 1 0.302118 0.377943 0.5
332 1 0.490857 0.386643 0.5
76 1 0.538167 0.377741 0.5
147 1 0.704746 0.363404 0.5
288 1 0.755434 0.365624 0.5
233 1 0.890915 0.414471 0.5
350 1 0.968777 0.545207 0.5
48 1 0.0413246 0.357368 0.5
228 1 0.0870075 0.371103 0.5
225 1 0.163129 0.443721 0.5
245 1 0.364175 0.485775 0.5
357 1 0.346227 0.385857 0.5
38 1 0.598932 0.364081 0.5
303 1 0.530616 0.482136 0.5
370 1 0.691294 0.45852 0.5
124 1 0.747297 0.412612 0.5
229 1 0.841 0.421611 0.5
59 1 0.952418 0.460044 0.5
343 1 0.905718 0.287741 0.5
167 1 0.225524 0.423923 0.5
398 1 0.385033 0.410847 0.5
302 1 0.266232 0.51052 0.5
58 1 0.348866 0.550287 0.5
317 1 0.484468 0.435474 0.5
377 1 0.535691 0.539618 0.5
100 1 0.658658 0.495393 0.5
3 1 0.627056 0.4572 0.5
328 1 0.700194 0.413965 0.5
313 1 0.874995 0.514865 0.5
263 1 0.970387 0.412303 0.5
337 1 0.91806 0.549251 0.5
133 1 0.0172337 0.397391 0.5
197 1 0.12086 0.483281 0.5
87 1 0.126234 0.535779 0.5
381 1 0.206474 0.464219 0.5
111 1 0.401123 0.510821 0.5
333 1 0.414833 0.456123 0.5
120 1 0.454861 0.47833 0.5
284 1 0.566442 0.448127 0.5
283 1 0.739222 0.464014 0.5
60 1 0.789104 0.475112 0.5
382 1 0.846786 0.474467 0.5
71 1 0.0300703 0.495377 0.5
192 1 0.047483 0.44936 0.5
122 1 0.0798427 0.497868 0.5
146 1 0.176025 0.539344 0.5
165 1 0.29965 0.464006 0.5
262 1 0.253838 0.466213 0.5
249 1 0.446544 0.523726 0.5
20 1 0.545387 0.58544 0.5
319 1 0.715202 0.502172 0.5
232 1 0.763259 0.515349 0.5
278 1 0.779629 0.580657 0.5
25 1 0.817294 0.512794 0.5
386 1 0.920706 0.498641 0.5
47 1 0.97986 0.500939 0.5
335 1 1.00152 0.44988 0.5
73 1 0.949661 0.583982 0.5
269 1 0.982209 0.620135 0.5
54 1 0.0791966 0.54439 0.5
104 1 0.47529 0.561873 0.5
162 1 0.604247 0.496139 0.5
385 1 0.544092 0.640744 0.5
275 1 0.57947 0.555585 0.5
363 1 0.630391 0.535543 0.5
21 1 0.743817 0.554838 0.5
65 1 0.744894 0.618591 0.5
372 1 0.835167 0.556933 0.5
253 1 0.0778874 0.626683 0.5
355 1 0.00650288 0.581895 0.5
44 1 0.167678 0.491044 0.5
205 1 0.179104 0.630038 0.5
166 1 0.214449 0.510911 0.5
259 1 0.240484 0.548069 0.5
219 1 0.456222 0.604723 0.5
126 1 0.673451 0.550019 0.5
212 1 0.839101 0.611807 0.5
154 1 0.882329 0.583072 0.5
322 1 0.164517 0.58561 0.5
301 1 0.289225 0.565973 0.5
388 1 0.320714 0.504446 0.5
86 1 0.497246 0.514148 0.5
55 1 0.497768 0.623748 0.5
341 1 0.587292 0.599422 0.5
23 1 0.614572 0.702587 0.5
307 1 0.693476 0.597827 0.5
174 1 0.671524 0.687877 0.5
326 1 0.828775 0.658916 0.5
66 1 0.791709 0.628789 0.5
351 1 0.871357 0.642861 0.5
256 1 0.0306311 0.626825 0.5
338 1 0.0566739 0.673995 0.5
280 1 0.0532512 0.582853 0.5
211 1 0.026226 0.540554 0.5
290 1 0.264011 0.667224 0.5
6 1 0.277883 0.609665 0.5
327 1 0.368049 0.63715 0.5
117 1 0.380899 0.584034 0.5
49 1 0.411423 0.624259 0.5
364 1 0.46038 0.651578 0.5
53 1 0.591571 0.653771 0.5
243 1 0.641769 0.647755 0.5
287 1 0.641751 0.742738 0.5
136 1 0.855057 0.70535 0.5
108 1 0.909331 0.688621 0.5
354 1 0.917512 0.616722 0.5
308 1 0.00797585 0.671623 0.5
92 1 0.103998 0.671658 0.5
29 1 0.335163 0.596018 0.5
27 1 0.437287 0.694832 0.5
32 1 0.480831 0.71862 0.5
121 1 0.501033 0.783888 0.5
329 1 0.50414 0.677037 0.5
155 1 0.580459 0.746956 0.5
177 1 0.643836 0.594118 0.5
75 1 0.765109 0.668051 0.5
376 1 0.891051 0.74162 0.5
156 1 0.954052 0.660347 0.5
90 1 0.109155 0.583751 0.5
198 1 0.215299 0.587885 0.5
393 1 0.234498 0.629956 0.5
299 1 0.249778 0.712803 0.5
297 1 0.337357 0.686563 0.5
309 1 0.424058 0.565245 0.5
379 1 0.579947 0.894693 0.5
57 1 0.535762 0.742526 0.5
247 1 0.698415 0.642853 0.5
277 1 0.723703 0.68474 0.5
380 1 0.749632 0.733548 0.5
102 1 0.854865 0.796071 0.5
131 1 0.985833 0.713764 0.5
129 1 0.0366447 0.715708 0.5
106 1 0.126264 0.625669 0.5
373 1 0.389034 0.722637 0.5
46 1 0.400155 0.777015 0.5
325 1 0.39327 0.67632 0.5
103 1 0.483134 0.834919 0.5
56 1 0.557799 0.788268 0.5
82 1 0.615137 0.781762 0.5
169 1 0.566741 0.701851 0.5
134 1 0.696334 0.734407 0.5
93 1 0.801082 0.694056 0.5
369 1 0.844879 0.752775 0.5
50 1 0.150124 0.723452 0.5
175 1 0.0963288 0.721104 0.5
183 1 0.206387 0.669482 0.5
200 1 0.296238 0.702798 0.5
62 1 0.305608 0.652001 0.5
36 1 0.346233 0.741584 0.5
7 1 0.533019 0.835154 0.5
137 1 0.585823 0.841188 0.5
22 1 0.642885 0.831119 0.5
246 1 0.622497 0.873746 0.5
37 1 0.676879 0.77724 0.5
130 1 0.801326 0.80284 0.5
34 1 0.922016 0.78313 0.5
281 1 0.939589 0.736417 0.5
348 1 0.158083 0.674166 0.5
153 1 0.240232 0.759125 0.5
105 1 0.317038 0.822195 0.5
128 1 0.350983 0.788596 0.5
282 1 0.432394 0.746049 0.5
160 1 0.446654 0.796633 0.5
222 1 0.515956 0.989547 0.5
318 1 0.723393 0.787349 0.5
336 1 0.795992 0.751404 0.5
45 1 0.0102823 0.752643 0.5
161 1 0.0537026 0.760553 0.5
9 1 0.115702 0.850427 0.5
88 1 0.20377 0.714498 0.5
358 1 0.350226 0.85444 0.5
39 1 0.397858 0.826448 0.5
349 1 0.506879 0.886585 0.5
264 1 0.559314 0.939266 0.5
97 1 0.603886 0.932349 0.5
396 1 0.674478 0.874189 0.5
215 1 0.688406 0.824598 0.5
224 1 0.839936 0.846237 0.5
208 1 0.0332544 0.802033 0.5
180 1 0.0974646 0.767376 0.5
185 1 0.147824 0.796048 0.5
367 1 0.185943 0.75598 0.5
227 1 0.299456 0.766258 0.5
387 1 0.281035 0.849503 0.5
315 1 0.333384 0.906305 0.5
72 1 0.387811 0.881366 0.5
186 1 0.426406 0.959875 0.5
80 1 0.519919 0.0535473 0.5
113 1 0.580725 0.989376 0.5
248 1 0.654346 0.916562 0.5
151 1 0.708567 0.916534 0.5
226 1 0.751341 0.826841 0.5
140 1 0.719003 0.862666 0.5
24 1 0.976046 0.800097 0.5
179 1 0.0852242 0.812034 0.5
33 1 0.978226 0.877541 0.5
70 1 0.132046 0.896558 0.5
294 1 0.173674 0.919711 0.5
334 1 0.206332 0.800062 0.5
242 1 0.227516 0.843334 0.5
159 1 0.244736 0.890056 0.5
352 1 0.375509 0.933521 0.5
279 1 0.455818 0.871973 0.5
74 1 0.935761 0.896961 0.5
181 1 0.180294 0.971722 0.5
218 1 0.200981 0.880916 0.5
178 1 0.317959 0.951342 0.5
68 1 0.286152 0.915229 0.5
368 1 0.263783 0.807377 0.5
366 1 0.466628 0.915466 0.5
172 1 0.426325 0.0117044 0.5
12 1 0.479616 0.0222027 0.5
273 1 0.507298 0.939248 0.5
345 1 0.711823 0.00232545 0.5
216 1 0.764279 0.994721 0.5
15 1 0.743161 0.949714 0.5
196 1 0.793106 0.848807 0.5
164 1 0.00168469 0.837374 0.5
61 1 0.956937 0.964628 0.5
202 1 0.982666 0.925579 0.5
51 1 0.0476702 0.844865 0.5
35 1 0.226693 0.982166 0.5
109 1 0.168924 0.842626 0.5
67 1 0.222005 0.932906 0.5
148 1 0.420474 0.914495 0.5
187 1 0.385014 0.0393826 0.5
77 1 0.629667 0.974718 0.5
210 1 0.662428 0.0105905 0.5
96 1 0.706083 0.0490662 0.5
203 1 0.684453 0.955209 0.5
347 1 0.80837 0.889977 0.5
8 1 0.940006 0.840583 0.5
311 1 0.0530105 0.94309 0.5
236 1 0.082272 0.883422 0.5
28 1 0.131651 0.975897 0.5
123 1 0.268791 0.958668 0.5
52 1 0.386053 0.98972 0.5
295 1 0.334302 0.99835 0.5
10 1 0.269345 0.119204 0.5
291 1 0.469191 0.978406 0.5
11 1 0.412193 0.0751849 0.5
189 1 0.531409 0.103287 0.5
339 1 0.758247 0.887448 0.5
114 1 0.877304 0.876952 0.5
286 1 0.896164 0.94536 0.5
