ITEM: TIMESTEP
100000
ITEM: NUMBER OF ATOMS
400
ITEM: BOX BOUNDS pp pp pp
0.0000000000000000e+00 2.5819888974716111e+01
0.0000000000000000e+00 2.5819888974716111e+01
-6.4549722436790280e-01 6.4549722436790280e-01
ITEM: ATOMS id type xs ys zs
80 1 0.0652342 0.0188831 0.5
255 1 0.121759 0.000464025 0.5
249 1 0.171306 0.0168881 0.5
274 1 0.27595 0.0203941 0.5
325 1 0.314698 0.0203155 0.5
172 1 0.51037 0.0215079 0.5
145 1 0.593827 0.0184379 0.5
111 1 0.64619 0.00750367 0.5
216 1 0.711582 0.0141531 0.5
201 1 0.753508 7.9351e-05 0.5
271 1 0.794416 0.0196897 0.5
86 1 0.866107 0.0110258 0.5
44 1 0.913674 0.0246474 0.5
366 1 0.100814 0.032745 0.5
33 1 0.349077 0.0386379 0.5
170 1 0.432283 0.0323185 0.5
157 1 0.561055 0.0492613 0.5
339 1 0.681273 0.0483472 0.5
361 1 0.951793 0.0504399 0.5
270 1 0.0107225 0.0546395 0.5
340 1 0.093454 0.0739148 0.5
236 1 0.137114 0.0750926 0.5
383 1 0.212029 0.0592383 0.5
46 1 0.38842 0.0536513 0.5
394 1 0.433747 0.070745 0.5
76 1 0.478936 0.0611353 0.5
187 1 0.520891 0.0721925 0.5
321 1 0.616989 0.0580686 0.5
142 1 0.730208 0.0708899 0.5
84 1 0.836786 0.0653527 0.5
5 1 0.900106 0.0693534 0.5
323 1 0.616428 0.0962811 0.5
139 1 0.658386 0.0856594 0.5
116 1 0.788895 0.095123 0.5
103 1 0.980241 0.0811127 0.5
305 1 0.0587986 0.104899 0.5
149 1 0.106935 0.122088 0.5
265 1 0.144857 0.125692 0.5
70 1 0.298733 0.106456 0.5
376 1 0.394919 0.113155 0.5
285 1 0.43109 0.112505 0.5
200 1 0.482606 0.110196 0.5
332 1 0.590753 0.127048 0.5
38 1 0.684401 0.11775 0.5
225 1 0.752419 0.112374 0.5
102 1 0.826318 0.102569 0.5
13 1 0.936596 0.120698 0.5
223 1 0.0338619 0.13704 0.5
219 1 0.228233 0.1383 0.5
377 1 0.265649 0.134264 0.5
188 1 0.327467 0.145696 0.5
186 1 0.360864 0.131276 0.5
345 1 0.401623 0.149642 0.5
57 1 0.489402 0.150839 0.5
152 1 0.648364 0.140651 0.5
106 1 0.701959 0.150968 0.5
232 1 0.744241 0.153327 0.5
79 1 0.785883 0.142721 0.5
331 1 0.855089 0.13498 0.5
382 1 0.892802 0.131091 0.5
343 1 0.998086 0.147968 0.5
128 1 0.07845 0.173361 0.5
81 1 0.179174 0.154311 0.5
181 1 0.354929 0.170471 0.5
351 1 0.438176 0.165674 0.5
381 1 0.531754 0.157021 0.5
298 1 0.614777 0.158578 0.5
182 1 0.833514 0.166153 0.5
183 1 0.869803 0.177667 0.5
134 1 0.944102 0.160188 0.5
8 1 0.0132517 0.193919 0.5
36 1 0.117495 0.183011 0.5
166 1 0.172897 0.201665 0.5
241 1 0.293185 0.185089 0.5
4 1 0.42951 0.202936 0.5
281 1 0.524984 0.196093 0.5
297 1 0.587086 0.184998 0.5
212 1 0.663099 0.182739 0.5
205 1 0.725392 0.199558 0.5
9 1 0.780331 0.184678 0.5
287 1 0.0798705 0.214311 0.5
137 1 0.127282 0.230626 0.5
316 1 0.226342 0.205592 0.5
278 1 0.271096 0.221743 0.5
62 1 0.316536 0.219393 0.5
365 1 0.360307 0.209286 0.5
87 1 0.481133 0.227432 0.5
322 1 0.55928 0.214953 0.5
319 1 0.620774 0.217979 0.5
342 1 0.682977 0.219424 0.5
341 1 0.886993 0.229717 0.5
56 1 0.918868 0.206691 0.5
43 1 0.959953 0.208398 0.5
174 1 0.0473337 0.243173 0.5
54 1 0.0937109 0.250861 0.5
156 1 0.203275 0.240936 0.5
267 1 0.390605 0.23132 0.5
393 1 0.518938 0.242455 0.5
148 1 0.58655 0.239961 0.5
190 1 0.78913 0.234974 0.5
295 1 0.843564 0.232682 0.5
384 1 0.2442 0.256706 0.5
160 1 0.308603 0.264286 0.5
221 1 0.404983 0.280165 0.5
242 1 0.560636 0.263321 0.5
353 1 0.641552 0.257728 0.5
112 1 0.679814 0.264222 0.5
191 1 0.724581 0.259028 0.5
310 1 0.77228 0.273314 0.5
121 1 0.817156 0.265226 0.5
370 1 0.892847 0.279816 0.5
63 1 0.956774 0.262833 0.5
237 1 0.0193083 0.288797 0.5
301 1 0.0667704 0.301507 0.5
39 1 0.109258 0.29674 0.5
184 1 0.155087 0.286064 0.5
199 1 0.252015 0.305995 0.5
337 1 0.433999 0.306048 0.5
246 1 0.467951 0.286509 0.5
234 1 0.558846 0.304844 0.5
257 1 0.738524 0.306226 0.5
309 1 0.849934 0.306139 0.5
389 1 0.0171378 0.328346 0.5
135 1 0.1919 0.329588 0.5
115 1 0.343045 0.326826 0.5
206 1 0.395856 0.323518 0.5
251 1 0.489113 0.323474 0.5
264 1 0.603078 0.323495 0.5
177 1 0.64202 0.331248 0.5
198 1 0.680159 0.317906 0.5
176 1 0.796673 0.32547 0.5
396 1 0.918107 0.326643 0.5
243 1 0.964023 0.311038 0.5
20 1 0.0515883 0.347265 0.5
304 1 0.090873 0.333998 0.5
231 1 0.137397 0.341814 0.5
318 1 0.268463 0.346203 0.5
379 1 0.449347 0.353499 0.5
180 1 0.525689 0.334054 0.5
288 1 0.70861 0.347871 0.5
333 1 0.744869 0.344027 0.5
355 1 0.83314 0.339876 0.5
26 1 0.874077 0.33849 0.5
91 1 0.985757 0.348548 0.5
258 1 0.00907426 0.380461 0.5
21 1 0.17918 0.370536 0.5
165 1 0.278498 0.382822 0.5
171 1 0.321936 0.360337 0.5
363 1 0.403975 0.367222 0.5
327 1 0.515253 0.37085 0.5
158 1 0.566837 0.364569 0.5
387 1 0.61564 0.364273 0.5
77 1 0.657338 0.369843 0.5
368 1 0.953189 0.369909 0.5
303 1 0.0383829 0.402456 0.5
10 1 0.0894024 0.385923 0.5
245 1 0.132589 0.393043 0.5
290 1 0.202001 0.409936 0.5
73 1 0.235098 0.392704 0.5
14 1 0.338524 0.408317 0.5
338 1 0.375397 0.399881 0.5
25 1 0.474897 0.395727 0.5
133 1 0.556914 0.403781 0.5
300 1 0.716606 0.387376 0.5
51 1 0.761881 0.38629 0.5
45 1 0.807191 0.392414 0.5
209 1 0.877189 0.395752 0.5
40 1 0.919489 0.39835 0.5
47 1 0.0544495 0.434664 0.5
192 1 0.104045 0.434434 0.5
59 1 0.14527 0.427901 0.5
66 1 0.27014 0.428637 0.5
272 1 0.437552 0.432579 0.5
110 1 0.481307 0.434173 0.5
329 1 0.525718 0.423156 0.5
167 1 0.587001 0.42891 0.5
151 1 0.660779 0.417667 0.5
58 1 0.761115 0.429842 0.5
147 1 0.840743 0.410771 0.5
88 1 0.9571 0.410558 0.5
254 1 0.0170203 0.436841 0.5
233 1 0.187739 0.450682 0.5
220 1 0.226193 0.45489 0.5
312 1 0.340042 0.447553 0.5
22 1 0.404072 0.449204 0.5
320 1 0.642911 0.456798 0.5
276 1 0.856403 0.451026 0.5
375 1 0.90918 0.439251 0.5
82 1 0.942971 0.457113 0.5
283 1 0.978973 0.450536 0.5
96 1 0.0106257 0.477145 0.5
69 1 0.0575418 0.482802 0.5
239 1 0.13157 0.469147 0.5
358 1 0.256727 0.479213 0.5
155 1 0.366599 0.481196 0.5
328 1 0.530393 0.470172 0.5
259 1 0.786942 0.47745 0.5
202 1 0.115507 0.502913 0.5
53 1 0.168942 0.488786 0.5
349 1 0.224141 0.500532 0.5
27 1 0.297665 0.492491 0.5
315 1 0.400208 0.504196 0.5
31 1 0.459476 0.48838 0.5
83 1 0.572104 0.512 0.5
34 1 0.620001 0.488699 0.5
143 1 0.706978 0.500661 0.5
374 1 0.873612 0.493305 0.5
203 1 0.931212 0.493717 0.5
117 1 0.978333 0.507325 0.5
178 1 0.0470956 0.524731 0.5
153 1 0.160466 0.525603 0.5
163 1 0.503282 0.519662 0.5
291 1 0.61542 0.526724 0.5
136 1 0.683038 0.534097 0.5
227 1 0.743738 0.528111 0.5
372 1 0.830994 0.532586 0.5
132 1 0.892007 0.536816 0.5
313 1 0.00351503 0.543347 0.5
129 1 0.092261 0.541198 0.5
235 1 0.147833 0.561928 0.5
364 1 0.189555 0.558692 0.5
362 1 0.23179 0.541152 0.5
119 1 0.310037 0.543469 0.5
99 1 0.369004 0.551396 0.5
314 1 0.453455 0.541714 0.5
218 1 0.536783 0.543429 0.5
210 1 0.648464 0.562941 0.5
48 1 0.789795 0.562949 0.5
399 1 0.951444 0.546976 0.5
107 1 0.0817674 0.583476 0.5
195 1 0.258365 0.571898 0.5
100 1 0.331503 0.577232 0.5
273 1 0.429735 0.570948 0.5
18 1 0.469128 0.57677 0.5
2 1 0.510267 0.569181 0.5
1 1 0.562684 0.588109 0.5
390 1 0.60325 0.568352 0.5
388 1 0.704795 0.576541 0.5
279 1 0.743414 0.575652 0.5
256 1 0.86268 0.570633 0.5
335 1 0.908549 0.569894 0.5
222 1 0.979716 0.574041 0.5
78 1 0.00399421 0.613875 0.5
398 1 0.0479048 0.605348 0.5
214 1 0.114732 0.609501 0.5
208 1 0.156858 0.599082 0.5
49 1 0.194317 0.612292 0.5
253 1 0.283016 0.612113 0.5
213 1 0.335541 0.614753 0.5
359 1 0.373104 0.602095 0.5
92 1 0.425335 0.612564 0.5
32 1 0.672699 0.608024 0.5
105 1 0.732455 0.612443 0.5
306 1 0.817676 0.595827 0.5
138 1 0.896432 0.607502 0.5
122 1 0.938178 0.606792 0.5
400 1 0.231942 0.637895 0.5
207 1 0.541498 0.62298 0.5
104 1 0.598608 0.63323 0.5
260 1 0.637335 0.638899 0.5
308 1 0.775606 0.633577 0.5
146 1 0.814385 0.638696 0.5
356 1 0.0738454 0.655435 0.5
228 1 0.178615 0.648505 0.5
71 1 0.399495 0.64198 0.5
194 1 0.505981 0.659022 0.5
65 1 0.693185 0.643325 0.5
24 1 0.866479 0.66354 0.5
12 1 0.951016 0.648799 0.5
113 1 0.140631 0.67352 0.5
397 1 0.240886 0.682443 0.5
114 1 0.282483 0.666884 0.5
89 1 0.329102 0.674057 0.5
371 1 0.419431 0.682126 0.5
324 1 0.558927 0.670884 0.5
277 1 0.650616 0.673551 0.5
284 1 0.763823 0.685793 0.5
261 1 0.823202 0.6786 0.5
108 1 0.949079 0.686743 0.5
330 1 0.993428 0.670719 0.5
302 1 0.0225203 0.702147 0.5
350 1 0.11383 0.697542 0.5
6 1 0.175981 0.693916 0.5
197 1 0.280382 0.706518 0.5
395 1 0.360886 0.694526 0.5
85 1 0.463523 0.696865 0.5
336 1 0.500517 0.717711 0.5
140 1 0.541149 0.710239 0.5
101 1 0.585142 0.711723 0.5
226 1 0.622198 0.702187 0.5
386 1 0.684403 0.696022 0.5
37 1 0.792175 0.713754 0.5
120 1 0.853558 0.71323 0.5
55 1 0.91215 0.692858 0.5
311 1 0.0569665 0.719588 0.5
307 1 0.179304 0.732288 0.5
250 1 0.29912 0.740909 0.5
367 1 0.396152 0.740876 0.5
125 1 0.647673 0.736839 0.5
75 1 0.725746 0.733443 0.5
35 1 0.818209 0.741959 0.5
385 1 0.979567 0.728675 0.5
95 1 0.0283785 0.74942 0.5
162 1 0.0684484 0.762598 0.5
348 1 0.139755 0.745662 0.5
68 1 0.264977 0.764412 0.5
64 1 0.363798 0.761531 0.5
168 1 0.456307 0.746278 0.5
196 1 0.495998 0.758951 0.5
131 1 0.595602 0.751222 0.5
154 1 0.911632 0.745004 0.5
217 1 0.953178 0.763403 0.5
240 1 0.107398 0.771699 0.5
98 1 0.145541 0.794601 0.5
179 1 0.181605 0.793281 0.5
344 1 0.223948 0.77277 0.5
275 1 0.327091 0.786305 0.5
164 1 0.398785 0.79079 0.5
346 1 0.434861 0.779366 0.5
299 1 0.471301 0.792079 0.5
280 1 0.532461 0.777405 0.5
150 1 0.567539 0.793684 0.5
378 1 0.622322 0.779393 0.5
97 1 0.680417 0.792338 0.5
244 1 0.7254 0.782397 0.5
90 1 0.902552 0.793093 0.5
41 1 0.994517 0.773592 0.5
23 1 0.0928867 0.806482 0.5
93 1 0.2433 0.812763 0.5
161 1 0.527404 0.818364 0.5
296 1 0.644668 0.813795 0.5
127 1 0.766629 0.796983 0.5
252 1 0.956513 0.80822 0.5
263 1 0.00562465 0.843228 0.5
334 1 0.0420428 0.828326 0.5
118 1 0.348856 0.826376 0.5
74 1 0.420243 0.822913 0.5
204 1 0.458182 0.837526 0.5
282 1 0.744108 0.829992 0.5
230 1 0.855092 0.825335 0.5
317 1 0.165728 0.848768 0.5
360 1 0.21395 0.847608 0.5
352 1 0.315324 0.857007 0.5
72 1 0.39204 0.868124 0.5
11 1 0.4948 0.854786 0.5
175 1 0.591133 0.857479 0.5
67 1 0.635206 0.871017 0.5
29 1 0.710556 0.846675 0.5
42 1 0.778852 0.846184 0.5
247 1 0.832745 0.8549 0.5
262 1 0.916816 0.852679 0.5
286 1 0.973609 0.862192 0.5
141 1 0.0389828 0.894542 0.5
266 1 0.13666 0.874742 0.5
354 1 0.265131 0.872446 0.5
123 1 0.352203 0.890918 0.5
169 1 0.443005 0.87392 0.5
173 1 0.545193 0.879504 0.5
124 1 0.598459 0.893867 0.5
144 1 0.741989 0.877657 0.5
30 1 0.811322 0.883449 0.5
109 1 0.871817 0.880719 0.5
193 1 0.913902 0.895078 0.5
50 1 0.101384 0.905515 0.5
7 1 0.155648 0.910756 0.5
185 1 0.20509 0.913597 0.5
215 1 0.306858 0.911901 0.5
15 1 0.446577 0.912112 0.5
224 1 0.68701 0.904612 0.5
229 1 0.775242 0.914977 0.5
326 1 0.85025 0.910771 0.5
61 1 0.953756 0.910777 0.5
3 1 0.0400632 0.93384 0.5
189 1 0.0788992 0.939014 0.5
289 1 0.252738 0.940068 0.5
347 1 0.322941 0.946624 0.5
17 1 0.543194 0.948581 0.5
293 1 0.646874 0.939432 0.5
28 1 0.69859 0.945539 0.5
159 1 0.991756 0.937163 0.5
16 1 0.123293 0.950191 0.5
238 1 0.198182 0.953724 0.5
292 1 0.431669 0.950945 0.5
52 1 0.484108 0.948859 0.5
294 1 0.759411 0.951016 0.5
130 1 0.793486 0.967223 0.5
94 1 0.827156 0.949776 0.5
391 1 0.911665 0.958659 0.5
373 1 0.948902 0.950831 0.5
380 1 0.00959179 0.976023 0.5
392 1 0.085856 0.979847 0.5
126 1 0.233296 0.982126 0.5
369 1 0.290652 0.983143 0.5
211 1 0.371574 0.980909 0.5
248 1 0.463604 0.991265 0.5
357 1 0.502584 0.982435 0.5
19 1 0.538394 0.994296 0.5
269 1 0.678868 0.990092 0.5
60 1 0.830729 0.996576 0.5
268 1 0.964032 0.992267 0.5
