ITEM: TIMESTEP
100000
ITEM: NUMBER OF ATOMS
400
ITEM: BOX BOUNDS pp pp pp
0.0000000000000000e+00 2.8284271247461902e+01
0.0000000000000000e+00 2.8284271247461902e+01
-7.0710678118654757e-01 7.0710678118654757e-01
ITEM: ATOMS id type xs ys zs
74 1 0.144137 0.0135846 0.5
399 1 0.21952 0.00655118 0.5
78 1 0.2821 0.0159567 0.5
144 1 0.333693 0.0187887 0.5
290 1 0.639279 0.0205633 0.5
32 1 0.683609 0.00936947 0.5
390 1 0.735052 0.00965403 0.5
195 1 0.791154 0.00656784 0.5
101 1 0.885588 0.0177862 0.5
250 1 0.0524245 0.0365578 0.5
377 1 0.0925247 0.0243329 0.5
68 1 0.190771 0.0426617 0.5
118 1 0.235678 0.0409856 0.5
189 1 0.303432 0.0459885 0.5
334 1 0.432516 0.0332577 0.5
196 1 0.530403 0.0374263 0.5
30 1 0.605019 0.0435761 0.5
26 1 0.671655 0.0458994 0.5
169 1 0.829213 0.0305522 0.5
56 1 0.955539 0.0291111 0.5
197 1 0.0107421 0.0683345 0.5
315 1 0.0809987 0.0618858 0.5
253 1 0.144564 0.0649061 0.5
228 1 0.503378 0.0652527 0.5
270 1 0.564306 0.0473364 0.5
84 1 0.706437 0.0642574 0.5
180 1 0.841537 0.0696529 0.5
172 1 0.870219 0.0480533 0.5
247 1 0.969904 0.0678761 0.5
80 1 0.0429591 0.0914261 0.5
287 1 0.21199 0.0730662 0.5
297 1 0.255102 0.0928299 0.5
191 1 0.340037 0.0862537 0.5
36 1 0.392362 0.0736024 0.5
44 1 0.419865 0.0925738 0.5
73 1 0.749082 0.0850105 0.5
29 1 0.874425 0.088619 0.5
52 1 0.915152 0.0923647 0.5
2 1 0.17806 0.09532 0.5
14 1 0.287389 0.107516 0.5
151 1 0.377474 0.11023 0.5
63 1 0.48872 0.0991722 0.5
314 1 0.561325 0.10126 0.5
252 1 0.638439 0.098941 0.5
51 1 0.687516 0.0965532 0.5
15 1 0.779269 0.105212 0.5
206 1 0.820092 0.110459 0.5
114 1 0.98458 0.113016 0.5
122 1 0.0503741 0.126452 0.5
257 1 0.115495 0.12386 0.5
349 1 0.151919 0.133875 0.5
105 1 0.461232 0.133745 0.5
281 1 0.524333 0.126307 0.5
123 1 0.581211 0.139477 0.5
229 1 0.904315 0.13867 0.5
217 1 0.94023 0.135172 0.5
94 1 0.0220514 0.153336 0.5
6 1 0.102522 0.158844 0.5
295 1 0.195825 0.147237 0.5
102 1 0.267324 0.149331 0.5
99 1 0.348339 0.148564 0.5
100 1 0.401451 0.157351 0.5
161 1 0.624336 0.162674 0.5
304 1 0.667393 0.139571 0.5
59 1 0.712722 0.141733 0.5
35 1 0.772568 0.152012 0.5
107 1 0.826164 0.14762 0.5
251 1 0.230359 0.170757 0.5
340 1 0.307957 0.176739 0.5
112 1 0.588864 0.176438 0.5
70 1 0.748502 0.179012 0.5
311 1 0.793871 0.180587 0.5
125 1 0.879428 0.170426 0.5
388 1 0.918407 0.173959 0.5
71 1 0.953703 0.171488 0.5
271 1 0.00830712 0.190597 0.5
117 1 0.294934 0.209184 0.5
171 1 0.334326 0.206608 0.5
267 1 0.408088 0.207678 0.5
25 1 0.453468 0.20089 0.5
165 1 0.528813 0.192118 0.5
61 1 0.623126 0.195879 0.5
223 1 0.832104 0.207994 0.5
356 1 0.910462 0.208074 0.5
375 1 0.956498 0.206168 0.5
10 1 0.0384117 0.215835 0.5
305 1 0.0859615 0.211902 0.5
248 1 0.126697 0.215153 0.5
308 1 0.160506 0.213769 0.5
119 1 0.558573 0.230247 0.5
309 1 0.602007 0.223663 0.5
326 1 0.757768 0.230547 0.5
282 1 0.875681 0.221874 0.5
258 1 0.051147 0.250656 0.5
166 1 0.0894578 0.247563 0.5
259 1 0.172798 0.255608 0.5
210 1 0.231731 0.23413 0.5
350 1 0.274417 0.246214 0.5
140 1 0.373372 0.24165 0.5
360 1 0.414411 0.251275 0.5
393 1 0.464892 0.234711 0.5
136 1 0.6972 0.235041 0.5
294 1 0.806881 0.23304 0.5
21 1 0.911375 0.243016 0.5
111 1 0.984458 0.237891 0.5
352 1 0.131894 0.256734 0.5
344 1 0.244125 0.27297 0.5
216 1 0.321556 0.256918 0.5
225 1 0.443035 0.270177 0.5
115 1 0.524081 0.26566 0.5
212 1 0.607475 0.275197 0.5
9 1 0.638988 0.262966 0.5
33 1 0.71468 0.263579 0.5
79 1 0.778384 0.279016 0.5
109 1 0.817965 0.265767 0.5
28 1 0.862261 0.261661 0.5
72 1 0.146558 0.287727 0.5
8 1 0.286586 0.282615 0.5
40 1 0.332158 0.29118 0.5
64 1 0.478908 0.29721 0.5
367 1 0.538376 0.300858 0.5
363 1 0.74 0.299801 0.5
23 1 0.841356 0.29653 0.5
299 1 0.880711 0.296865 0.5
65 1 0.948775 0.29946 0.5
1 1 0.0455266 0.318342 0.5
391 1 0.112707 0.313037 0.5
89 1 0.210903 0.31367 0.5
31 1 0.266324 0.31651 0.5
86 1 0.375579 0.325064 0.5
386 1 0.622288 0.32535 0.5
147 1 0.915144 0.305046 0.5
331 1 0.229324 0.343485 0.5
227 1 0.326748 0.348516 0.5
175 1 0.433274 0.329157 0.5
394 1 0.492374 0.334432 0.5
310 1 0.661536 0.33043 0.5
288 1 0.789987 0.339777 0.5
41 1 0.850242 0.333734 0.5
234 1 0.926733 0.338151 0.5
365 1 0.960959 0.340256 0.5
332 1 0.102665 0.370774 0.5
222 1 0.148223 0.358545 0.5
324 1 0.195573 0.350994 0.5
219 1 0.423578 0.362405 0.5
168 1 0.482892 0.367493 0.5
325 1 0.717197 0.350278 0.5
149 1 0.750824 0.354078 0.5
157 1 0.849136 0.37055 0.5
186 1 0.99501 0.359077 0.5
321 1 0.18514 0.386764 0.5
380 1 0.239652 0.395185 0.5
4 1 0.350697 0.378411 0.5
183 1 0.404113 0.392261 0.5
164 1 0.556612 0.379132 0.5
266 1 0.603517 0.393215 0.5
301 1 0.649193 0.375033 0.5
322 1 0.818108 0.390304 0.5
255 1 0.901649 0.381589 0.5
346 1 0.0144875 0.398721 0.5
230 1 0.154295 0.417636 0.5
137 1 0.283835 0.395758 0.5
362 1 0.457573 0.415193 0.5
62 1 0.68127 0.403248 0.5
233 1 0.753779 0.39675 0.5
327 1 0.791476 0.412316 0.5
55 1 0.978575 0.405656 0.5
47 1 0.062255 0.436188 0.5
34 1 0.108909 0.422814 0.5
48 1 0.328836 0.431015 0.5
218 1 0.371563 0.432099 0.5
193 1 0.406859 0.427229 0.5
108 1 0.487141 0.434299 0.5
355 1 0.568277 0.427037 0.5
353 1 0.645014 0.433253 0.5
129 1 0.727127 0.425625 0.5
207 1 0.826475 0.434004 0.5
357 1 0.913811 0.420371 0.5
209 1 0.952593 0.433765 0.5
296 1 0.0979528 0.458831 0.5
359 1 0.153944 0.458118 0.5
5 1 0.19484 0.448508 0.5
312 1 0.230665 0.449133 0.5
330 1 0.286921 0.445572 0.5
213 1 0.594103 0.44802 0.5
188 1 0.727868 0.462234 0.5
131 1 0.790763 0.449081 0.5
116 1 0.882451 0.444278 0.5
93 1 0.00584456 0.465344 0.5
190 1 0.0475494 0.478327 0.5
185 1 0.125646 0.483193 0.5
162 1 0.262652 0.477851 0.5
19 1 0.347583 0.467877 0.5
7 1 0.419474 0.47439 0.5
192 1 0.477094 0.48486 0.5
231 1 0.56535 0.46663 0.5
42 1 0.614323 0.476424 0.5
283 1 0.671241 0.485564 0.5
132 1 0.763173 0.466622 0.5
128 1 0.835639 0.477345 0.5
163 1 0.0806792 0.489611 0.5
220 1 0.225125 0.49127 0.5
155 1 0.298273 0.494645 0.5
203 1 0.334348 0.502499 0.5
285 1 0.375941 0.504218 0.5
181 1 0.511752 0.502892 0.5
328 1 0.563643 0.501302 0.5
133 1 0.780599 0.500989 0.5
53 1 0.902949 0.494837 0.5
241 1 0.945393 0.503985 0.5
184 1 0.981124 0.492961 0.5
50 1 0.0275546 0.518661 0.5
92 1 0.182147 0.530099 0.5
135 1 0.221538 0.533042 0.5
22 1 0.275597 0.52623 0.5
237 1 0.61544 0.513527 0.5
395 1 0.653053 0.532267 0.5
95 1 0.694753 0.514093 0.5
318 1 0.745092 0.529133 0.5
249 1 0.861395 0.512409 0.5
24 1 0.0118583 0.557808 0.5
336 1 0.0700144 0.539503 0.5
293 1 0.251397 0.551695 0.5
262 1 0.328381 0.545298 0.5
277 1 0.471303 0.550447 0.5
261 1 0.599528 0.554935 0.5
338 1 0.890301 0.552453 0.5
20 1 0.97713 0.536176 0.5
145 1 0.181251 0.581312 0.5
97 1 0.301522 0.575926 0.5
211 1 0.35438 0.564921 0.5
16 1 0.398878 0.569638 0.5
160 1 0.432078 0.571552 0.5
45 1 0.516514 0.574787 0.5
286 1 0.661427 0.572647 0.5
85 1 0.69265 0.561292 0.5
75 1 0.753309 0.561821 0.5
240 1 0.814329 0.571603 0.5
379 1 0.954677 0.573001 0.5
158 1 0.129173 0.595462 0.5
383 1 0.554754 0.598889 0.5
273 1 0.69059 0.600147 0.5
96 1 0.772405 0.604364 0.5
396 1 0.918167 0.594535 0.5
167 1 0.979741 0.598956 0.5
279 1 0.0211647 0.614241 0.5
139 1 0.232497 0.615861 0.5
54 1 0.267496 0.622689 0.5
187 1 0.326896 0.610982 0.5
202 1 0.401324 0.606569 0.5
194 1 0.46818 0.609864 0.5
17 1 0.577711 0.625554 0.5
198 1 0.620958 0.62206 0.5
300 1 0.74092 0.61857 0.5
159 1 0.864238 0.616293 0.5
121 1 0.0344324 0.65102 0.5
371 1 0.107673 0.63835 0.5
153 1 0.163614 0.638812 0.5
244 1 0.305037 0.642243 0.5
148 1 0.360758 0.646926 0.5
177 1 0.406364 0.641702 0.5
170 1 0.53531 0.640344 0.5
110 1 0.699364 0.637269 0.5
278 1 0.819447 0.636079 0.5
37 1 0.920285 0.632674 0.5
268 1 0.4913 0.651328 0.5
347 1 0.582007 0.658831 0.5
176 1 0.712653 0.670288 0.5
150 1 0.757919 0.667473 0.5
87 1 0.840726 0.667002 0.5
238 1 0.888013 0.653418 0.5
373 1 0.937346 0.663991 0.5
60 1 0.972965 0.666199 0.5
208 1 0.0617698 0.689108 0.5
69 1 0.150174 0.681022 0.5
90 1 0.253 0.686581 0.5
88 1 0.325171 0.695322 0.5
104 1 0.379396 0.681642 0.5
339 1 0.435085 0.692615 0.5
235 1 0.490213 0.688994 0.5
120 1 0.542851 0.691699 0.5
385 1 0.660559 0.674729 0.5
384 1 0.788369 0.69039 0.5
316 1 0.0117948 0.70067 0.5
83 1 0.225121 0.716591 0.5
182 1 0.403551 0.712851 0.5
335 1 0.729348 0.708069 0.5
392 1 0.844923 0.709218 0.5
57 1 0.0556537 0.726765 0.5
275 1 0.110538 0.726168 0.5
343 1 0.160168 0.723308 0.5
113 1 0.256501 0.73705 0.5
354 1 0.301021 0.730086 0.5
342 1 0.426887 0.743469 0.5
214 1 0.497043 0.727446 0.5
127 1 0.55492 0.735953 0.5
11 1 0.614326 0.742987 0.5
368 1 0.692414 0.735083 0.5
256 1 0.766483 0.732617 0.5
174 1 0.801608 0.733625 0.5
398 1 0.903274 0.740194 0.5
43 1 0.969053 0.722128 0.5
272 1 0.0710994 0.764858 0.5
178 1 0.192064 0.75822 0.5
389 1 0.319529 0.763622 0.5
307 1 0.374271 0.747708 0.5
276 1 0.473689 0.765393 0.5
364 1 0.933244 0.763275 0.5
46 1 0.0334733 0.768202 0.5
13 1 0.117765 0.771479 0.5
369 1 0.280214 0.772495 0.5
370 1 0.348353 0.788455 0.5
358 1 0.39252 0.780799 0.5
12 1 0.432032 0.789221 0.5
348 1 0.532032 0.770094 0.5
291 1 0.63848 0.781711 0.5
134 1 0.680326 0.772603 0.5
173 1 0.828281 0.789978 0.5
264 1 0.86359 0.773226 0.5
215 1 0.981614 0.770134 0.5
254 1 0.0114544 0.801589 0.5
341 1 0.15411 0.794038 0.5
224 1 0.231877 0.798893 0.5
130 1 0.285064 0.81079 0.5
236 1 0.494966 0.796873 0.5
232 1 0.557353 0.807184 0.5
319 1 0.602425 0.803539 0.5
152 1 0.697477 0.80947 0.5
265 1 0.760029 0.795054 0.5
126 1 0.906889 0.792314 0.5
226 1 0.0441625 0.820284 0.5
243 1 0.124134 0.83507 0.5
103 1 0.418262 0.836946 0.5
337 1 0.648081 0.817946 0.5
274 1 0.733333 0.828636 0.5
146 1 0.804941 0.834476 0.5
284 1 0.869035 0.823616 0.5
374 1 0.97904 0.831271 0.5
400 1 0.203023 0.847818 0.5
372 1 0.256331 0.849945 0.5
81 1 0.306377 0.843232 0.5
143 1 0.352829 0.843375 0.5
77 1 0.471205 0.844736 0.5
378 1 0.6176 0.839367 0.5
382 1 0.68987 0.854893 0.5
242 1 0.927492 0.841386 0.5
27 1 0.119545 0.876558 0.5
302 1 0.154242 0.878741 0.5
58 1 0.316835 0.878898 0.5
246 1 0.380218 0.878284 0.5
179 1 0.761667 0.866251 0.5
76 1 0.797234 0.871109 0.5
39 1 0.855214 0.870411 0.5
289 1 0.894349 0.880279 0.5
263 1 0.0200925 0.888698 0.5
67 1 0.216092 0.905144 0.5
306 1 0.439491 0.896867 0.5
361 1 0.572834 0.888948 0.5
204 1 0.605514 0.903966 0.5
200 1 0.638994 0.891687 0.5
205 1 0.672557 0.890916 0.5
66 1 0.716931 0.887042 0.5
201 1 0.762989 0.903432 0.5
387 1 0.812626 0.901777 0.5
49 1 0.933606 0.886146 0.5
280 1 0.0489876 0.921708 0.5
320 1 0.0849222 0.909228 0.5
345 1 0.154508 0.926496 0.5
18 1 0.299656 0.920969 0.5
376 1 0.358467 0.91289 0.5
221 1 0.528187 0.912965 0.5
141 1 0.649419 0.925244 0.5
38 1 0.850802 0.917085 0.5
239 1 0.990053 0.917431 0.5
269 1 0.078039 0.944892 0.5
317 1 0.116673 0.937531 0.5
298 1 0.248678 0.943808 0.5
397 1 0.341756 0.946638 0.5
351 1 0.403499 0.937589 0.5
98 1 0.562098 0.93041 0.5
3 1 0.708642 0.949535 0.5
260 1 0.791249 0.950509 0.5
91 1 0.96236 0.944192 0.5
333 1 0.207473 0.960825 0.5
292 1 0.279248 0.972037 0.5
303 1 0.496516 0.975588 0.5
323 1 0.649826 0.962665 0.5
106 1 0.820421 0.969526 0.5
199 1 0.862613 0.95501 0.5
245 1 0.00534484 0.993466 0.5
381 1 0.0583495 0.982425 0.5
366 1 0.111989 0.990253 0.5
154 1 0.170595 0.984422 0.5
313 1 0.359879 0.991793 0.5
142 1 0.470192 0.999744 0.5
124 1 0.564931 0.992767 0.5
156 1 0.606432 0.994201 0.5
329 1 0.711183 0.98374 0.5
138 1 0.856817 0.992437 0.5
82 1 0.920742 0.980288 0.5
