ITEM: TIMESTEP
100000
ITEM: NUMBER OF ATOMS
400
ITEM: BOX BOUNDS pp pp pp
0.0000000000000000e+00 2.0000000000000000e+01
0.0000000000000000e+00 2.0000000000000000e+01
-5.0000000000000000e-01 5.0000000000000000e-01
ITEM: ATOMS id type xs ys zs
54 1 0.037615 0.0107518 0.5
235 1 0.0893811 0.0263713 0.5
354 1 0.143347 0.0313615 0.5
98 1 0.387415 0.0584509 0.5
27 1 0.41407 0.0148196 0.5
20 1 0.608295 0.983188 0.5
397 1 0.690309 0.02739 0.5
318 1 0.73766 0.0205615 0.5
3 1 0.820987 0.994711 0.5
221 1 0.845761 0.0430426 0.5
158 1 0.90153 0.0473464 0.5
299 1 0.970372 0.997849 0.5
365 1 0.189996 0.0313966 0.5
254 1 0.23489 0.0546009 0.5
203 1 0.288854 0.050701 0.5
63 1 0.339427 0.0515606 0.5
186 1 0.464348 0.0169972 0.5
107 1 0.525154 0.0146104 0.5
120 1 0.58368 0.0299415 0.5
230 1 0.639255 0.0218701 0.5
66 1 0.753913 0.0663795 0.5
233 1 0.793325 0.0351609 0.5
334 1 0.869618 0.0914628 0.5
297 1 0.924366 0.0938346 0.5
301 1 0.952335 0.0519966 0.5
62 1 0.00564862 0.0498176 0.5
42 1 0.0520533 0.0574305 0.5
272 1 0.10883 0.0750464 0.5
29 1 0.157899 0.0872817 0.5
209 1 0.205685 0.0940205 0.5
140 1 0.266505 0.103987 0.5
198 1 0.393735 0.117674 0.5
269 1 0.439123 0.075455 0.5
220 1 0.495011 0.0528687 0.5
367 1 0.54304 0.0638656 0.5
243 1 0.608935 0.0692694 0.5
370 1 0.705265 0.0747857 0.5
395 1 0.822634 0.12521 0.5
177 1 0.80545 0.176401 0.5
5 1 0.97446 0.0956966 0.5
72 1 0.0288267 0.101668 0.5
338 1 0.0754497 0.117068 0.5
218 1 0.123547 0.12341 0.5
167 1 0.172935 0.138659 0.5
290 1 0.345195 0.101719 0.5
150 1 0.398904 0.17691 0.5
335 1 0.439733 0.134093 0.5
219 1 0.499342 0.102112 0.5
79 1 0.657238 0.0767046 0.5
323 1 0.722869 0.119127 0.5
189 1 0.815314 0.0771363 0.5
302 1 0.772954 0.109645 0.5
347 1 0.890078 0.138757 0.5
105 1 0.091435 0.164219 0.5
11 1 0.230425 0.138744 0.5
68 1 0.307778 0.141822 0.5
315 1 0.354577 0.152268 0.5
380 1 0.449 0.193125 0.5
353 1 0.536303 0.135446 0.5
274 1 0.572259 0.102792 0.5
37 1 0.620519 0.116454 0.5
162 1 0.779324 0.213718 0.5
341 1 0.854164 0.172756 0.5
291 1 0.938719 0.146814 0.5
45 1 0.995503 0.139734 0.5
9 1 0.0421613 0.154114 0.5
231 1 0.14208 0.173092 0.5
82 1 0.197797 0.179719 0.5
60 1 0.268728 0.169627 0.5
249 1 0.313659 0.188664 0.5
171 1 0.489818 0.149224 0.5
102 1 0.497119 0.199643 0.5
64 1 0.542531 0.182712 0.5
139 1 0.637986 0.162008 0.5
155 1 0.671256 0.12356 0.5
345 1 0.758397 0.161913 0.5
232 1 0.825055 0.225563 0.5
210 1 0.904952 0.183458 0.5
346 1 0.949303 0.196788 0.5
18 1 0.00297807 0.19865 0.5
156 1 0.0617805 0.204756 0.5
314 1 0.108284 0.217809 0.5
284 1 0.168731 0.21725 0.5
226 1 0.366599 0.215597 0.5
55 1 0.412627 0.227137 0.5
200 1 0.468727 0.24137 0.5
2 1 0.583903 0.150605 0.5
33 1 0.602077 0.199695 0.5
197 1 0.692903 0.167673 0.5
331 1 0.729243 0.200434 0.5
109 1 0.790894 0.275509 0.5
392 1 0.0352549 0.255732 0.5
47 1 0.0868669 0.26077 0.5
93 1 0.226515 0.222214 0.5
305 1 0.280302 0.227183 0.5
308 1 0.332286 0.250762 0.5
4 1 0.375738 0.267464 0.5
116 1 0.523425 0.241453 0.5
296 1 0.570362 0.244636 0.5
191 1 0.622899 0.24925 0.5
157 1 0.663476 0.209529 0.5
283 1 0.69838 0.245052 0.5
294 1 0.875389 0.228073 0.5
247 1 0.925791 0.238481 0.5
51 1 0.980658 0.246967 0.5
307 1 0.135635 0.261683 0.5
306 1 0.191168 0.261331 0.5
377 1 0.239897 0.272817 0.5
129 1 0.291197 0.27526 0.5
240 1 0.431478 0.271808 0.5
184 1 0.4923 0.285114 0.5
246 1 0.543781 0.285121 0.5
145 1 0.599216 0.291529 0.5
114 1 0.649103 0.288307 0.5
344 1 0.745706 0.253677 0.5
50 1 0.84177 0.276096 0.5
351 1 0.892786 0.282733 0.5
348 1 0.941731 0.290218 0.5
239 1 0.00146203 0.295939 0.5
74 1 0.0565109 0.307638 0.5
324 1 0.111532 0.305422 0.5
316 1 0.164054 0.31338 0.5
213 1 0.210138 0.312822 0.5
384 1 0.25729 0.331454 0.5
337 1 0.332753 0.29753 0.5
234 1 0.399105 0.313499 0.5
251 1 0.448419 0.326018 0.5
52 1 0.500881 0.33198 0.5
178 1 0.558413 0.33245 0.5
14 1 0.699789 0.297726 0.5
320 1 0.748059 0.301296 0.5
287 1 0.816123 0.316662 0.5
276 1 0.862844 0.330566 0.5
300 1 0.915288 0.333827 0.5
223 1 0.0268766 0.348659 0.5
160 1 0.0774516 0.352854 0.5
117 1 0.13121 0.356257 0.5
260 1 0.304053 0.339369 0.5
77 1 0.355317 0.348542 0.5
81 1 0.416701 0.367279 0.5
304 1 0.611382 0.340651 0.5
174 1 0.669161 0.335921 0.5
58 1 0.723439 0.345353 0.5
275 1 0.772433 0.34325 0.5
265 1 0.971442 0.335473 0.5
166 1 0.0428902 0.391748 0.5
61 1 0.177984 0.374053 0.5
309 1 0.2272 0.373621 0.5
211 1 0.272713 0.386755 0.5
49 1 0.322477 0.385036 0.5
359 1 0.376701 0.405292 0.5
35 1 0.463966 0.37667 0.5
339 1 0.526431 0.377668 0.5
176 1 0.579583 0.3879 0.5
190 1 0.627354 0.390406 0.5
53 1 0.688556 0.385424 0.5
112 1 0.819506 0.367412 0.5
21 1 0.889892 0.386619 0.5
378 1 0.941346 0.373092 0.5
236 1 0.995592 0.384527 0.5
31 1 0.0939668 0.400222 0.5
329 1 0.143656 0.410491 0.5
227 1 0.196882 0.427284 0.5
113 1 0.246358 0.431565 0.5
313 1 0.295802 0.430258 0.5
336 1 0.424191 0.415229 0.5
263 1 0.494271 0.415218 0.5
95 1 0.546494 0.424219 0.5
267 1 0.74585 0.400566 0.5
175 1 0.793192 0.407697 0.5
84 1 0.847465 0.416928 0.5
237 1 0.897577 0.43431 0.5
182 1 0.0109588 0.429324 0.5
34 1 0.0599588 0.438679 0.5
169 1 0.110457 0.445396 0.5
319 1 0.158724 0.458231 0.5
321 1 0.346193 0.44469 0.5
181 1 0.399437 0.463721 0.5
187 1 0.459677 0.448116 0.5
311 1 0.504239 0.467438 0.5
46 1 0.59976 0.436094 0.5
303 1 0.651764 0.434687 0.5
241 1 0.712362 0.438619 0.5
43 1 0.76104 0.452933 0.5
143 1 0.817828 0.474883 0.5
376 1 0.870652 0.477441 0.5
100 1 0.960738 0.42011 0.5
87 1 0.0277263 0.474267 0.5
253 1 0.0742459 0.494885 0.5
136 1 0.212284 0.473531 0.5
278 1 0.265006 0.480817 0.5
137 1 0.314477 0.490261 0.5
17 1 0.362648 0.501051 0.5
173 1 0.424696 0.505311 0.5
70 1 0.557327 0.468036 0.5
152 1 0.625347 0.476517 0.5
92 1 0.679309 0.474988 0.5
242 1 0.731038 0.49561 0.5
256 1 0.843533 0.515433 0.5
146 1 0.924252 0.476876 0.5
199 1 0.977437 0.4709 0.5
163 1 0.121669 0.505708 0.5
149 1 0.174955 0.51556 0.5
289 1 0.227127 0.521657 0.5
393 1 0.27752 0.529785 0.5
196 1 0.324979 0.543811 0.5
214 1 0.475348 0.509214 0.5
57 1 0.531566 0.508655 0.5
363 1 0.583011 0.515295 0.5
30 1 0.644528 0.524288 0.5
369 1 0.781987 0.508283 0.5
201 1 0.806507 0.554418 0.5
400 1 0.891083 0.525029 0.5
356 1 0.946443 0.520686 0.5
366 1 0.998187 0.51765 0.5
16 1 0.0497204 0.537976 0.5
373 1 0.0966231 0.550124 0.5
374 1 0.150905 0.555303 0.5
298 1 0.253917 0.578134 0.5
217 1 0.301705 0.587451 0.5
128 1 0.38517 0.545331 0.5
134 1 0.452332 0.550205 0.5
10 1 0.50275 0.548503 0.5
188 1 0.69002 0.540535 0.5
125 1 0.746543 0.542793 0.5
97 1 0.852483 0.564911 0.5
19 1 0.907785 0.570191 0.5
168 1 0.00967916 0.578448 0.5
164 1 0.0608852 0.586954 0.5
350 1 0.123459 0.593699 0.5
7 1 0.206199 0.567384 0.5
22 1 0.356094 0.587197 0.5
108 1 0.407665 0.593369 0.5
257 1 0.550879 0.556558 0.5
123 1 0.60507 0.564888 0.5
293 1 0.661078 0.579204 0.5
119 1 0.71255 0.588124 0.5
204 1 0.770181 0.585799 0.5
131 1 0.814994 0.6081 0.5
71 1 0.960424 0.577643 0.5
132 1 0.0231698 0.624889 0.5
36 1 0.0734752 0.638169 0.5
205 1 0.171794 0.608124 0.5
326 1 0.223832 0.617322 0.5
327 1 0.273181 0.624556 0.5
26 1 0.324454 0.630402 0.5
76 1 0.379745 0.634002 0.5
28 1 0.476159 0.595489 0.5
340 1 0.523942 0.606746 0.5
75 1 0.5752 0.60078 0.5
1 1 0.626812 0.618704 0.5
127 1 0.679195 0.625024 0.5
368 1 0.738313 0.630421 0.5
15 1 0.786726 0.646096 0.5
371 1 0.874965 0.614483 0.5
398 1 0.923193 0.614897 0.5
288 1 0.973097 0.622396 0.5
355 1 0.123517 0.650507 0.5
69 1 0.186843 0.654952 0.5
386 1 0.286154 0.669988 0.5
360 1 0.427831 0.643034 0.5
357 1 0.48663 0.644561 0.5
148 1 0.537176 0.655762 0.5
73 1 0.585535 0.652064 0.5
138 1 0.646628 0.665943 0.5
342 1 0.838596 0.653248 0.5
67 1 0.887363 0.660781 0.5
192 1 0.0576345 0.684145 0.5
80 1 0.153012 0.691583 0.5
202 1 0.198956 0.705171 0.5
24 1 0.236125 0.668988 0.5
252 1 0.341333 0.681395 0.5
41 1 0.403077 0.686544 0.5
372 1 0.455055 0.683193 0.5
262 1 0.705758 0.666162 0.5
13 1 0.749869 0.684079 0.5
23 1 0.799087 0.69285 0.5
394 1 0.858107 0.700497 0.5
358 1 0.909311 0.707051 0.5
271 1 0.936592 0.664013 0.5
208 1 0.00304048 0.678045 0.5
6 1 0.0141719 0.737723 0.5
352 1 0.106065 0.695214 0.5
83 1 0.210172 0.757371 0.5
153 1 0.242865 0.721908 0.5
121 1 0.305325 0.7169 0.5
159 1 0.370954 0.725535 0.5
65 1 0.502456 0.698457 0.5
222 1 0.552906 0.708455 0.5
325 1 0.608708 0.70094 0.5
40 1 0.65741 0.714049 0.5
172 1 0.709378 0.721393 0.5
385 1 0.7561 0.734141 0.5
8 1 0.809229 0.745505 0.5
180 1 0.958002 0.709054 0.5
332 1 0.0657358 0.734861 0.5
285 1 0.109963 0.747018 0.5
224 1 0.163059 0.742377 0.5
25 1 0.273219 0.760004 0.5
48 1 0.420488 0.735233 0.5
99 1 0.46776 0.73116 0.5
59 1 0.518737 0.742905 0.5
391 1 0.578336 0.755215 0.5
361 1 0.627081 0.753712 0.5
292 1 0.675514 0.770245 0.5
277 1 0.723481 0.772733 0.5
86 1 0.865024 0.754631 0.5
118 1 0.914129 0.75748 0.5
88 1 0.035226 0.782235 0.5
295 1 0.0835003 0.787401 0.5
44 1 0.136014 0.796541 0.5
261 1 0.321078 0.761119 0.5
161 1 0.373274 0.773484 0.5
104 1 0.423275 0.783294 0.5
170 1 0.473993 0.782186 0.5
94 1 0.780282 0.784087 0.5
89 1 0.819893 0.806332 0.5
310 1 0.888456 0.803725 0.5
258 1 0.975363 0.763798 0.5
381 1 0.0526904 0.826566 0.5
364 1 0.100674 0.831738 0.5
106 1 0.155866 0.840564 0.5
206 1 0.18781 0.796922 0.5
279 1 0.24127 0.804501 0.5
91 1 0.288147 0.807228 0.5
333 1 0.338119 0.819355 0.5
154 1 0.395858 0.825875 0.5
388 1 0.538455 0.787227 0.5
183 1 0.597985 0.797252 0.5
317 1 0.647006 0.808924 0.5
111 1 0.69634 0.814348 0.5
255 1 0.75888 0.828908 0.5
142 1 0.803264 0.849271 0.5
349 1 0.853641 0.849759 0.5
259 1 0.937593 0.807717 0.5
250 1 0.206309 0.841022 0.5
126 1 0.259362 0.852662 0.5
147 1 0.311608 0.858924 0.5
281 1 0.45855 0.829098 0.5
312 1 0.517482 0.828168 0.5
282 1 0.567893 0.835385 0.5
216 1 0.617527 0.847877 0.5
248 1 0.666282 0.859137 0.5
135 1 0.91245 0.848598 0.5
387 1 0.963742 0.861256 0.5
215 1 0.99798 0.814927 0.5
130 1 0.0187707 0.863077 0.5
85 1 0.131601 0.882888 0.5
225 1 0.181825 0.883444 0.5
165 1 0.229047 0.893085 0.5
151 1 0.363527 0.864706 0.5
238 1 0.416682 0.869719 0.5
32 1 0.472392 0.87286 0.5
328 1 0.522936 0.874311 0.5
245 1 0.580147 0.881903 0.5
266 1 0.631844 0.895599 0.5
396 1 0.721981 0.858175 0.5
103 1 0.762865 0.889069 0.5
101 1 0.820832 0.894578 0.5
38 1 0.885166 0.893922 0.5
244 1 0.0386833 0.910009 0.5
207 1 0.0723336 0.875666 0.5
382 1 0.0869981 0.926256 0.5
144 1 0.189729 0.932606 0.5
96 1 0.282587 0.908161 0.5
133 1 0.335882 0.919026 0.5
229 1 0.348836 0.965335 0.5
195 1 0.38336 0.920333 0.5
343 1 0.686049 0.923849 0.5
122 1 0.745948 0.944212 0.5
270 1 0.803969 0.947357 0.5
78 1 0.852694 0.935977 0.5
383 1 0.935289 0.902606 0.5
375 1 0.983142 0.918715 0.5
389 1 0.140717 0.930571 0.5
399 1 0.244585 0.939148 0.5
286 1 0.290295 0.958732 0.5
90 1 0.365484 0.0120542 0.5
141 1 0.401226 0.967698 0.5
179 1 0.432452 0.91382 0.5
110 1 0.493181 0.923283 0.5
115 1 0.542489 0.920645 0.5
273 1 0.592159 0.934715 0.5
56 1 0.650179 0.957083 0.5
362 1 0.695941 0.976115 0.5
280 1 0.770572 0.985711 0.5
264 1 0.872744 0.984085 0.5
322 1 0.901476 0.939452 0.5
212 1 0.949056 0.950459 0.5
124 1 0.0130725 0.959556 0.5
228 1 0.0586821 0.966019 0.5
390 1 0.10671 0.977602 0.5
193 1 0.157293 0.977391 0.5
39 1 0.218787 0.978983 0.5
12 1 0.265836 0.000858399 0.5
268 1 0.316909 0.000536352 0.5
330 1 0.450119 0.963202 0.5
194 1 0.500193 0.970862 0.5
379 1 0.554497 0.967023 0.5
185 1 0.917915 -0.0013704 0.5
