
include ${pot}.lmp
include kalj.lmp
units lj
atom_style atomic

variable dimensions equal 3
variable density equal 1.2
variable fraca equal 0.8

dimension ${dimensions}
dimension 3
read_restart ${prevbasename}.final.lmprestart.${steps}
read_restart equil/kalj_T0.6_n360_v300_1000000_1.final.lmprestart.${steps}
read_restart equil/kalj_T0.6_n360_v300_1000000_1.final.lmprestart.1000000
Reading restart file ...
  restart file = 15 Sep 2022, LAMMPS = 15 Sep 2022
WARNING: Restart file used different # of processors: 2 vs. 4 (src/read_restart.cpp:659)
  restoring atom style atomic from restart
  orthogonal box = (0 0 0) to (6.6943295 6.6943295 6.6943295)
  1 by 2 by 2 MPI processor grid
  restoring pair style lj/cut from restart
  360 atoms
  read_restart CPU = 0.026 seconds
include ${pot}_particles.lmp
include kalj_particles.lmp
mass * 1.0 #  set mass 1.0 for all types

pair_style lj/cut 2.5
#pair coeffs type1 type2 eps sigma
pair_coeff 1 1 1.0 1.00 2.5
pair_coeff 1 2 1.5 0.80 2.0
pair_coeff 2 2 0.5 0.88 2.2
pair_modify shift yes
reset_timestep 0

print "Setting up equilibration run"
Setting up equilibration run
variable dumptime2 equal ${steps}/2000
variable dumptime2 equal 1000000/2000
dump 1 all dcd ${dumptime2} ${basename}.unwrap.dcd
dump 1 all dcd 500 ${basename}.unwrap.dcd
dump 1 all dcd 500 prod/kalj_T0.6_n360_v300_prod_1000000_1.unwrap.dcd
#dump 2 all dcd ${dumptime2} ${basename}.dcd
dump_modify 1 unwrap yes
#dump_modify 2 unwrap no

restart ${restarttime} ${basename}.restart
restart 1000000 ${basename}.restart
restart 1000000 prod/kalj_T0.6_n360_v300_prod_1000000_1.restart
restart ${steps} ${basename}.final.lmprestart
restart 1000000 ${basename}.final.lmprestart
restart 1000000 prod/kalj_T0.6_n360_v300_prod_1000000_1.final.lmprestart

thermo ${thermotime}
thermo 50000
timestep ${timestep}
timestep 0.003

neighbor 0.5 bin
neigh_modify every 1 delay ${neighborstep} check yes
neigh_modify every 1 delay 25 check yes

#velocity all create ${temp} ${id} dist gaussian
fix 1 all nvt temp ${temp} ${temp} ${taut}
fix 1 all nvt temp 0.6 ${temp} ${taut}
fix 1 all nvt temp 0.6 0.6 ${taut}
fix 1 all nvt temp 0.6 0.6 0.3
Resetting global fix info from restart file:
  fix style: nvt, fix ID: 1

variable steps4 equal ${steps}/4
variable steps4 equal 1000000/4
run ${steps4}
run 250000
Generated 0 of 1 mixed pair_coeff terms from geometric mixing rule
All restart file global fix info was re-assigned
Neighbor list info ...
  update: every = 1 steps, delay = 25 steps, check = yes
  max neighbors/atom: 2000, page size: 100000
  master list distance cutoff = 3
  ghost atom cutoff = 3
  binsize = 1.5, bins = 5 5 5
  1 neighbor lists, perpetual/occasional/extra = 1 0 0
  (1) pair lj/cut, perpetual
      attributes: half, newton on
      pair build: half/bin/atomonly/newton
      stencil: half/bin/3d
      bin: standard
Per MPI rank memory allocation (min/avg/max) = 3.138 | 3.138 | 3.138 Mbytes
   Step          Temp          E_pair         E_mol          TotEng         Press     
         0   0.62360539    -6.7153804      0             -5.7825706      5.0196749    
     50000   0.57955112    -6.7471161      0             -5.8802042      4.7801145    
    100000   0.56006073    -6.672913       0             -5.8351555      5.2308121    
    150000   0.5718069     -6.7346957      0             -5.8793679      4.9628553    
    200000   0.58508751    -6.7268172      0             -5.8516238      4.8431863    
    250000   0.63163839    -6.7263577      0             -5.7815319      4.9133047    
Loop time of 26.2646 on 4 procs for 250000 steps with 360 atoms

Performance: 2467199.705 tau/day, 9518.517 timesteps/s, 3.427 Matom-step/s
99.6% CPU use with 4 MPI tasks x 1 OpenMP threads

MPI task timing breakdown:
Section |  min time  |  avg time  |  max time  |%varavg| %total
---------------------------------------------------------------
Pair    | 12.615     | 13.06      | 13.392     |   8.1 | 49.73
Neigh   | 1.2315     | 1.2699     | 1.2909     |   2.0 |  4.84
Comm    | 9.8956     | 10.21      | 10.484     |   6.8 | 38.87
Output  | 0.13082    | 0.13647    | 0.14654    |   1.6 |  0.52
Modify  | 1.0913     | 1.2601     | 1.501      |  13.3 |  4.80
Other   |            | 0.3282     |            |       |  1.25

Nlocal:             90 ave          92 max          89 min
Histogram: 2 0 0 1 0 0 0 0 0 1
Nghost:        1232.75 ave        1235 max        1227 min
Histogram: 1 0 0 0 0 0 0 0 1 2
Neighs:           5219 ave        5325 max        5077 min
Histogram: 1 0 0 0 0 1 0 1 0 1

Total # of neighbors = 20876
Ave neighs/atom = 57.988889
Neighbor list builds = 7499
Dangerous builds = 132
Total wall time: 0:00:26
