ITEM: TIMESTEP
100000
ITEM: NUMBER OF ATOMS
400
ITEM: BOX BOUNDS pp pp pp
0.0000000000000000e+00 2.3904572186687872e+01
0.0000000000000000e+00 2.3904572186687872e+01
-5.9761430466719678e-01 5.9761430466719678e-01
ITEM: ATOMS id type xs ys zs
177 1 0.982584 0.274052 0.5
269 1 0.78058 0.842262 0.5
228 1 0.948262 0.00515206 0.5
119 1 0.16697 0.916073 0.5
189 1 0.107079 0.121346 0.5
166 1 0.341692 0.0930985 0.5
325 1 0.366431 0.945394 0.5
40 1 0.372187 0.997646 0.5
62 1 0.534486 0.753149 0.5
399 1 0.813409 0.997169 0.5
141 1 0.792393 0.0984898 0.5
157 1 0.870123 0.0600605 0.5
87 1 0.908847 0.0750843 0.5
260 1 0.302417 0.0706787 0.5
154 1 0.128337 0.963107 0.5
274 1 0.196807 0.071003 0.5
27 1 0.417037 0.0174361 0.5
143 1 0.524969 0.00857062 0.5
234 1 0.707965 0.995733 0.5
296 1 0.487566 0.964035 0.5
319 1 0.556399 0.0592476 0.5
282 1 0.675252 0.793759 0.5
280 1 0.714584 0.784507 0.5
80 1 0.891342 0.851345 0.5
337 1 0.75681 0.153325 0.5
377 1 0.961429 0.137222 0.5
219 1 0.302662 0.881322 0.5
101 1 0.311415 0.923572 0.5
171 1 0.422322 0.119103 0.5
24 1 0.841427 0.166129 0.5
126 1 0.832182 0.0343594 0.5
250 1 0.0620019 0.185492 0.5
186 1 0.892341 0.0239534 0.5
268 1 0.00818049 0.13784 0.5
243 1 0.107755 0.0387994 0.5
251 1 0.349158 0.0467438 0.5
4 1 0.530866 0.110289 0.5
382 1 0.499242 0.0554799 0.5
303 1 0.60692 0.105736 0.5
82 1 0.414303 0.0591903 0.5
117 1 0.684175 0.8626 0.5
354 1 0.788705 0.0569103 0.5
81 1 0.728006 0.0341186 0.5
254 1 0.797679 0.247166 0.5
341 1 0.836691 0.0877362 0.5
385 1 0.91614 0.140999 0.5
356 1 0.249996 0.0812667 0.5
308 1 0.433996 0.176131 0.5
314 1 0.458486 0.0647849 0.5
132 1 0.745155 0.375739 0.5
292 1 0.760538 0.230171 0.5
246 1 0.804819 0.390862 0.5
316 1 0.862471 0.350602 0.5
383 1 0.87207 0.123821 0.5
204 1 0.993938 0.323349 0.5
331 1 0.987391 0.176236 0.5
247 1 0.183028 0.239291 0.5
127 1 0.133852 0.223062 0.5
293 1 0.150463 0.0676685 0.5
131 1 0.245849 0.156307 0.5
53 1 0.382097 0.100463 0.5
137 1 0.336885 0.140382 0.5
275 1 0.694312 0.162892 0.5
284 1 0.80754 0.140138 0.5
255 1 0.878004 0.310139 0.5
384 1 0.869115 0.215547 0.5
290 1 0.918142 0.226596 0.5
35 1 0.958919 0.218918 0.5
392 1 0.106233 0.0796138 0.5
60 1 0.37664 0.24031 0.5
302 1 0.296744 0.139184 0.5
102 1 0.523137 0.17652 0.5
74 1 0.73757 0.192391 0.5
221 1 0.646903 0.122047 0.5
56 1 0.598519 0.236552 0.5
31 1 0.743449 0.270104 0.5
13 1 0.664716 0.187915 0.5
2 1 0.94439 0.262069 0.5
371 1 0.058088 0.229038 0.5
299 1 0.177864 0.331501 0.5
394 1 0.0613814 0.133686 0.5
97 1 0.0176076 0.226179 0.5
64 1 0.3915 0.15398 0.5
291 1 0.635433 0.0730723 0.5
123 1 0.79257 0.176836 0.5
249 1 0.82635 0.332144 0.5
378 1 0.899027 0.188716 0.5
85 1 0.0742661 0.336475 0.5
118 1 0.102279 0.304799 0.5
15 1 0.163336 0.190741 0.5
78 1 0.178151 0.283873 0.5
271 1 0.308869 0.212868 0.5
329 1 0.558137 0.203102 0.5
304 1 0.595076 0.0316938 0.5
372 1 0.618152 0.197509 0.5
14 1 0.701592 0.221749 0.5
368 1 0.850986 0.252206 0.5
313 1 0.944912 0.301419 0.5
277 1 0.0350265 0.320483 0.5
51 1 0.27636 0.186969 0.5
230 1 0.14286 0.309175 0.5
374 1 0.347602 0.192259 0.5
33 1 0.548485 0.26299 0.5
75 1 0.606466 0.156002 0.5
215 1 0.751008 0.311202 0.5
9 1 0.784021 0.353046 0.5
335 1 0.655757 0.358312 0.5
279 1 0.903738 0.263434 0.5
116 1 0.929345 0.339084 0.5
273 1 0.00229031 0.391148 0.5
42 1 0.10051 0.480287 0.5
220 1 0.132038 0.356086 0.5
89 1 0.130204 0.263582 0.5
390 1 0.118103 0.183621 0.5
300 1 0.469839 0.199079 0.5
18 1 0.516566 0.225652 0.5
156 1 0.56355 0.133283 0.5
161 1 0.809254 0.289411 0.5
207 1 0.70668 0.394712 0.5
103 1 0.974915 0.359365 0.5
149 1 0.0346384 0.365535 0.5
376 1 0.0788479 0.404683 0.5
68 1 0.211033 0.358835 0.5
6 1 0.287573 0.391378 0.5
180 1 0.225866 0.305407 0.5
232 1 0.254279 0.348223 0.5
187 1 0.258481 0.227346 0.5
388 1 0.474044 0.156663 0.5
353 1 0.65133 0.227568 0.5
359 1 0.831801 0.427301 0.5
49 1 0.983069 0.471354 0.5
364 1 0.892294 0.443419 0.5
90 1 0.937734 0.472295 0.5
176 1 0.241347 0.384744 0.5
22 1 0.481319 0.252222 0.5
365 1 0.502445 0.298468 0.5
259 1 0.708395 0.294986 0.5
324 1 0.662902 0.300273 0.5
400 1 0.777139 0.488022 0.5
289 1 0.066458 0.446903 0.5
181 1 0.182286 0.511266 0.5
135 1 0.142748 0.541639 0.5
310 1 0.141967 0.447731 0.5
222 1 0.299459 0.454945 0.5
391 1 0.99948 0.43446 0.5
160 1 0.174095 0.400605 0.5
395 1 0.211532 0.128525 0.5
206 1 0.218412 0.263572 0.5
355 1 0.586819 0.290579 0.5
153 1 0.547743 0.325093 0.5
202 1 0.787394 0.55659 0.5
77 1 0.843445 0.469208 0.5
168 1 0.916464 0.384787 0.5
338 1 0.207028 0.180364 0.5
358 1 0.286366 0.268752 0.5
397 1 0.325943 0.254593 0.5
133 1 0.469352 0.361182 0.5
342 1 0.465283 0.417534 0.5
179 1 0.765013 0.418786 0.5
73 1 0.732125 0.556461 0.5
57 1 0.996732 0.533189 0.5
30 1 0.0218111 0.502635 0.5
350 1 0.0401272 0.550278 0.5
322 1 0.096703 0.529711 0.5
105 1 0.312383 0.354088 0.5
95 1 0.118807 0.397927 0.5
134 1 0.169615 0.103559 0.5
201 1 0.403569 0.352925 0.5
286 1 0.416639 0.222104 0.5
145 1 0.484444 0.567073 0.5
223 1 0.465419 0.504005 0.5
167 1 0.578858 0.358181 0.5
258 1 0.713294 0.344814 0.5
61 1 0.870226 0.398933 0.5
381 1 0.737373 0.509156 0.5
144 1 0.951642 0.405437 0.5
349 1 0.132828 0.681743 0.5
191 1 0.244284 0.42766 0.5
343 1 0.314102 0.305282 0.5
266 1 0.356101 0.286481 0.5
267 1 0.39671 0.276553 0.5
352 1 0.488012 0.466723 0.5
178 1 0.616142 0.386046 0.5
295 1 0.697507 0.435292 0.5
235 1 0.890995 0.486835 0.5
38 1 0.112111 0.570899 0.5
25 1 0.0735197 0.637351 0.5
58 1 0.202838 0.441407 0.5
218 1 0.427711 0.402516 0.5
125 1 0.436395 0.25985 0.5
130 1 0.508314 0.428186 0.5
330 1 0.400025 0.524875 0.5
311 1 0.522049 0.369751 0.5
362 1 0.626934 0.280863 0.5
164 1 0.618997 0.332199 0.5
46 1 0.744022 0.458868 0.5
346 1 0.697278 0.487797 0.5
328 1 0.693159 0.548388 0.5
195 1 0.121296 0.612945 0.5
238 1 0.155037 0.585597 0.5
84 1 0.19885 0.560119 0.5
155 1 0.359266 0.32712 0.5
12 1 0.440286 0.331746 0.5
28 1 0.436323 0.473295 0.5
8 1 0.451698 0.545452 0.5
1 1 0.526797 0.472463 0.5
208 1 0.61681 0.429636 0.5
326 1 0.551531 0.437295 0.5
19 1 0.655922 0.413127 0.5
336 1 0.795566 0.447404 0.5
182 1 0.654106 0.521837 0.5
32 1 0.953382 0.532871 0.5
233 1 0.0720378 0.574327 0.5
366 1 0.972375 0.716915 0.5
211 1 0.229394 0.518229 0.5
261 1 0.335018 0.404576 0.5
253 1 0.415508 0.645458 0.5
165 1 0.406093 0.579232 0.5
162 1 0.971541 0.629425 0.5
357 1 0.0697034 0.679021 0.5
94 1 0.00354016 0.74463 0.5
112 1 0.279946 0.501066 0.5
152 1 0.146523 0.721825 0.5
16 1 0.378435 0.392693 0.5
198 1 0.341091 0.682785 0.5
396 1 0.33128 0.591317 0.5
312 1 0.507897 0.529036 0.5
136 1 0.59895 0.575895 0.5
188 1 0.633053 0.474098 0.5
276 1 0.147026 0.491711 0.5
240 1 0.970317 0.673209 0.5
194 1 0.982877 0.788672 0.5
209 1 0.015691 0.665896 0.5
43 1 0.343332 0.450009 0.5
20 1 0.377691 0.489816 0.5
227 1 0.435856 0.691279 0.5
265 1 0.508394 0.790208 0.5
86 1 0.562705 0.629119 0.5
239 1 0.509081 0.646582 0.5
3 1 0.610089 0.527727 0.5
288 1 0.652463 0.651549 0.5
21 1 0.652769 0.567162 0.5
285 1 0.929883 0.794267 0.5
272 1 0.10579 0.719434 0.5
200 1 0.24321 0.614746 0.5
398 1 0.191242 0.641265 0.5
283 1 0.362186 0.564804 0.5
229 1 0.466708 0.660688 0.5
142 1 0.574357 0.470855 0.5
318 1 0.583555 0.665403 0.5
305 1 0.672129 0.607952 0.5
320 1 0.0338983 0.611753 0.5
124 1 0.19195 0.708541 0.5
106 1 0.203284 0.600231 0.5
252 1 0.262834 0.570394 0.5
379 1 0.32225 0.543731 0.5
175 1 0.252842 0.467168 0.5
321 1 0.385357 0.436434 0.5
39 1 0.513471 0.717531 0.5
174 1 0.56682 0.72333 0.5
333 1 0.703546 0.681173 0.5
217 1 0.736925 0.603558 0.5
147 1 0.917243 0.56017 0.5
158 1 0.915771 0.608299 0.5
213 1 0.0384285 0.777492 0.5
294 1 0.11232 0.76572 0.5
248 1 0.264721 0.769083 0.5
334 1 0.225961 0.79879 0.5
52 1 0.240602 0.721183 0.5
244 1 0.325161 0.499132 0.5
76 1 0.539515 0.55079 0.5
172 1 0.559862 0.513157 0.5
114 1 0.530441 0.59146 0.5
214 1 0.604266 0.621388 0.5
23 1 0.727895 0.644302 0.5
54 1 0.810679 0.71638 0.5
192 1 0.978483 0.572422 0.5
315 1 0.85414 0.614524 0.5
70 1 0.168485 0.758833 0.5
92 1 0.358936 0.815777 0.5
83 1 0.328298 0.642313 0.5
139 1 0.375068 0.723066 0.5
159 1 0.443518 0.617036 0.5
108 1 0.446205 0.738975 0.5
242 1 0.665004 0.705233 0.5
257 1 0.863469 0.523676 0.5
138 1 0.213407 0.759117 0.5
148 1 0.370739 0.905291 0.5
210 1 0.280992 0.626994 0.5
327 1 0.398215 0.780639 0.5
34 1 0.306979 0.730519 0.5
387 1 0.490961 0.606998 0.5
231 1 0.379199 0.671438 0.5
345 1 0.54597 0.948513 0.5
47 1 0.624322 0.743566 0.5
45 1 0.799947 0.663595 0.5
380 1 0.805614 0.603581 0.5
237 1 0.932937 0.698696 0.5
37 1 0.132951 0.851502 0.5
360 1 0.17602 0.803134 0.5
185 1 0.233206 0.656085 0.5
351 1 0.305698 0.772366 0.5
72 1 0.355812 0.768742 0.5
99 1 0.478136 0.760888 0.5
197 1 0.583377 0.906581 0.5
88 1 0.358457 0.864316 0.5
340 1 0.72641 0.745124 0.5
104 1 0.851364 0.686134 0.5
183 1 0.874817 0.566086 0.5
373 1 0.882272 0.711976 0.5
26 1 0.886218 0.64315 0.5
225 1 0.931204 0.753167 0.5
236 1 0.0670947 0.844422 0.5
93 1 0.463139 0.804406 0.5
11 1 0.379642 0.610353 0.5
100 1 0.637624 0.981289 0.5
241 1 0.621223 0.701978 0.5
196 1 0.637917 0.898091 0.5
96 1 0.806297 0.87325 0.5
370 1 0.93243 0.648631 0.5
323 1 0.802504 0.913956 0.5
129 1 0.973881 0.835669 0.5
111 1 0.0735067 0.758991 0.5
59 1 0.2495 0.965903 0.5
184 1 0.228097 0.917854 0.5
55 1 0.4985 0.871208 0.5
98 1 0.23544 0.873408 0.5
309 1 0.536842 0.905857 0.5
113 1 0.770153 0.628919 0.5
91 1 0.833023 0.835282 0.5
270 1 0.845774 0.754497 0.5
297 1 0.762464 0.888861 0.5
36 1 0.774067 0.967361 0.5
361 1 0.884464 0.802291 0.5
163 1 0.0551189 0.724216 0.5
110 1 0.957217 0.964269 0.5
63 1 0.0381638 0.887668 0.5
150 1 0.276214 0.692651 0.5
122 1 0.117727 0.81336 0.5
5 1 0.272231 0.91473 0.5
263 1 0.225383 0.00645139 0.5
307 1 0.603065 0.955829 0.5
306 1 0.559163 0.856207 0.5
140 1 -0.000914284 0.989171 0.5
67 1 0.0472291 0.0769453 0.5
369 1 0.99875 0.942966 0.5
245 1 0.266678 0.834147 0.5
216 1 0.409941 0.884601 0.5
344 1 0.584756 0.767113 0.5
224 1 0.475563 0.70281 0.5
107 1 0.758316 0.682178 0.5
146 1 0.675546 0.746023 0.5
115 1 0.987573 0.877047 0.5
71 1 0.0560167 0.965684 0.5
79 1 0.0254512 0.849357 0.5
169 1 0.982385 0.0292833 0.5
278 1 0.014974 0.0519247 0.5
170 1 0.173564 0.850865 0.5
281 1 0.124724 0.921342 0.5
212 1 0.336546 0.97613 0.5
205 1 0.400682 0.826136 0.5
7 1 0.551296 0.795197 0.5
386 1 0.79361 0.76385 0.5
262 1 0.845652 0.904087 0.5
120 1 0.094352 0.8846 0.5
29 1 0.938238 0.0467053 0.5
367 1 0.315494 0.0227592 0.5
173 1 0.0854049 0.926789 0.5
10 1 0.272778 0.0255638 0.5
66 1 0.43636 0.942635 0.5
65 1 0.576852 0.987141 0.5
41 1 0.644417 0.937885 0.5
190 1 0.805964 0.802631 0.5
256 1 0.690358 0.935185 0.5
193 1 0.829257 0.954656 0.5
44 1 0.869838 0.940047 0.5
298 1 0.964144 0.918896 0.5
48 1 0.927481 0.887739 0.5
347 1 0.94653 0.092719 0.5
301 1 0.0945346 0.992555 0.5
317 1 0.528825 0.831314 0.5
109 1 0.48978 0.916494 0.5
375 1 0.65734 0.0310637 0.5
363 1 0.590564 0.822489 0.5
69 1 0.620842 0.787025 0.5
199 1 0.735872 0.856181 0.5
393 1 0.763122 0.0086271 0.5
287 1 0.711618 0.105079 0.5
121 1 0.909703 0.973036 0.5
151 1 0.0660053 0.0365787 0.5
17 1 0.17184 0.962186 0.5
264 1 0.992605 0.0944906 0.5
332 1 0.158592 0.0134141 0.5
348 1 0.486838 0.109102 0.5
226 1 0.294551 0.972341 0.5
203 1 0.697381 0.0622647 0.5
339 1 0.749022 0.933052 0.5
389 1 0.932997 0.845205 0.5
50 1 0.0625126 0.279883 0.5
128 1 0.85699 0.991722 0.5
