LAMMPS (15 Sep 2022)
OMP_NUM_THREADS environment is not set. Defaulting to 1 thread. (src/comm.cpp:98)
  using 1 OpenMP thread(s) per MPI task
# 3d WCA system, random initial configuration

#variable density equal 0.6
variable initial_temperature equal 3.0
variable final_temperature equal 0.1
variable dt equal 0.005
variable tau equal 100*${dt}
variable tau equal 100*0.005
variable thermo_time equal 50000*${dt}
variable thermo_time equal 50000*0.005
variable equil_steps equal 50000
variable run_steps equal 100000

units           lj
atom_style      atomic
dimension       3                # 修改1：将维度改为3

lattice         fcc ${density}   # 修改2：将晶格类型改为 fcc
lattice         fcc 1.1   
Lattice spacing in x,y,z = 1.5377619 1.5377619 1.5377619
region          box block 0 8 0 8 0 8    # 修改3：调整区域大小为 8x8x8

# number of atom types
create_box      1 box
Created orthogonal box = (0 0 0) to (12.302095 12.302095 12.302095)
  1 by 1 by 1 MPI processor grid
create_atoms    1 box
Created 2048 atoms
  using lattice units in orthogonal box = (0 0 0) to (12.302095 12.302095 12.302095)
  create_atoms CPU = 0.000 seconds
mass 1 1.0

velocity all create ${initial_temperature} 12345
velocity all create 3 12345

pair_style      lj/cut 1.0
#type_1 type_2 epsilon sigma cutoff
pair_coeff      1 1 10.0 0.89089871814 1.0
pair_modify shift yes

timestep ${dt}
timestep 0.005
thermo ${thermo_time}
thermo 250

fix 1 all nvt temp ${initial_temperature} ${initial_temperature} ${tau}
fix 1 all nvt temp 3 ${initial_temperature} ${tau}
fix 1 all nvt temp 3 3 ${tau}
fix 1 all nvt temp 3 3 0.5
run ${equil_steps}
run 50000
Generated 0 of 0 mixed pair_coeff terms from geometric mixing rule
Neighbor list info ...
  update: every = 1 steps, delay = 0 steps, check = yes
  max neighbors/atom: 2000, page size: 100000
  master list distance cutoff = 1.3
  ghost atom cutoff = 1.3
  binsize = 0.65, bins = 19 19 19
  1 neighbor lists, perpetual/occasional/extra = 1 0 0
  (1) pair lj/cut, perpetual
      attributes: half, newton on
      pair build: half/bin/atomonly/newton
      stencil: half/bin/3d
      bin: standard
Per MPI rank memory allocation (min/avg/max) = 3.162 | 3.162 | 3.162 Mbytes
   Step          Temp          E_pair         E_mol          TotEng         Press     
         0   3              0              0              4.4978027      3.2983887    
       250   2.5613707      1.8614072      0              5.7015873      29.538748    
       500   3.0774523      2.3587101      0              6.9726345      35.274503    
       750   3.0386708      2.283307       0              6.8390876      34.665087    
      1000   2.9966582      2.3264299      0              6.8192224      35.064193    
      1250   3.0533426      2.4210387      0              6.9988163      36.026957    
      1500   2.9065106      2.3366868      0              6.6943238      35.047657    
      1750   3.0953408      2.3984927      0              7.0392369      35.607586    
      2000   2.9404693      2.3212989      0              6.7298491      34.819837    
      2250   3.0664699      2.3725751      0              6.9700341      35.186974    
      2500   2.9699333      2.2963752      0              6.7490999      34.562425    
      2750   3.0634276      2.430995       0              7.0238927      36.259452    
      3000   3.0326467      2.3068009      0              6.8535498      34.828161    
      3250   3.0509413      2.3479913      0              6.9221686      35.439795    
      3500   2.9774219      2.3930483      0              6.8570004      35.555822    
      3750   2.9549999      2.4631795      0              6.8935151      36.060233    
      4000   3.0260663      2.3960266      0              6.9329096      35.639112    
      4250   2.9585404      2.3539871      0              6.7896309      34.979096    
      4500   3.1053429      2.3688708      0              7.0246108      35.406314    
      4750   3.0392411      2.2448176      0              6.8014532      34.36218     
      5000   3.07349        2.3645202      0              6.9725041      35.415173    
      5250   2.9911658      2.3636308      0              6.8481887      35.507591    
      5500   3.0453264      2.3340148      0              6.8997739      35.217112    
      5750   3.0437398      2.4203972      0              6.9837776      36.031667    
      6000   2.9909006      2.3189949      0              6.8031552      34.873464    
      6250   3.0133802      2.4354033      0              6.9532665      35.730603    
      6500   2.9540766      2.3556013      0              6.7845525      35.129816    
      6750   2.9675703      2.4353196      0              6.8845015      35.956169    
      7000   3.0606106      2.4339902      0              7.0226644      35.939326    
      7250   2.9890854      2.351793       0              6.8332319      35.360423    
      7500   3.0250687      2.3853231      0              6.9207106      35.275762    
      7750   3.0011543      2.2743406      0              6.7738739      34.522004    
      8000   3.069421       2.3235048      0              6.9253882      34.835468    
      8250   2.9432218      2.3194873      0              6.7321643      34.926813    
      8500   3.0133832      2.3664264      0              6.8842942      35.418662    
      8750   2.9248248      2.4646126      0              6.8497075      36.180396    
      9000   2.9570571      2.2726349      0              6.7060548      34.405991    
      9250   3.0034089      2.420429       0              6.9233425      35.941718    
      9500   2.9532767      2.2913515      0              6.7191036      34.616823    
      9750   3.0677822      2.389508       0              6.9889343      35.636182    
     10000   2.9627047      2.3410316      0              6.7829187      34.965683    
     10250   3.0301069      2.3883457      0              6.9312867      35.69188     
     10500   3.0439574      2.4811902      0              7.0448969      36.365651    
     10750   2.9100773      2.4125984      0              6.7755829      35.608522    
     11000   3.1488777      2.3060225      0              7.0270328      35.114082    
     11250   2.8740229      2.4337787      0              6.7427081      36.045621    
     11500   3.0402775      2.3956604      0              6.95385        35.800473    
     11750   2.9027521      2.3345354      0              6.6865376      35.10356     
     12000   3.05532        2.3622324      0              6.9429747      35.537703    
     12250   2.9460774      2.2880209      0              6.7049792      34.606736    
     12500   2.9918421      2.3736051      0              6.8591769      35.288447    
     12750   3.0226694      2.3710106      0              6.9028009      35.804725    
     13000   2.9795578      2.3029139      0              6.7700683      34.955342    
     13250   3.0252261      2.3918076      0              6.927431       35.471957    
     13500   3.0102719      2.327158       0              6.8403611      35.136341    
     13750   3.0470444      2.454901       0              7.0232358      36.005113    
     14000   2.9439335      2.3972329      0              6.810977       35.645982    
     14250   3.0972148      2.381914       0              7.0254678      35.326407    
     14500   3.0023366      2.3160944      0              6.8174003      34.823741    
     14750   3.0494205      2.3258584      0              6.8977557      35.174747    
     15000   2.9498511      2.3173433      0              6.7399594      34.808195    
     15250   2.9819069      2.44033        0              6.9110064      36.067899    
     15500   3.0625309      2.4215346      0              7.0130878      36.046629    
     15750   2.9513219      2.364349       0              6.7891702      35.377703    
     16000   3.1172056      2.3897749      0              7.0633002      35.645771    
     16250   2.9438507      2.3793238      0              6.7929437      35.359689    
     16500   3.0298553      2.3965402      0              6.939104       35.79838     
     16750   2.9234645      2.3375697      0              6.7206254      34.920122    
     17000   3.0292955      2.3967208      0              6.9384452      35.756636    
     17250   2.9080556      2.3123649      0              6.6723184      34.891883    
     17500   3.0471509      2.3492564      0              6.9177509      35.332011    
     17750   2.8754153      2.4197537      0              6.7307705      35.907318    
     18000   2.8797337      2.4471112      0              6.7646027      35.744748    
     18250   3.0419437      2.3802803      0              6.9409679      35.560535    
     18500   2.9670762      2.2557869      0              6.7042281      34.267602    
     18750   3.0579776      2.391464       0              6.9761907      35.679388    
     19000   2.9884434      2.3357299      0              6.8162063      34.995108    
     19250   3.2058085      2.3319096      0              7.1382743      35.232097    
     19500   2.9738521      2.3635694      0              6.8221695      35.357257    
     19750   3.0907118      2.371609       0              7.0054131      35.463788    
     20000   2.9702041      2.3564909      0              6.8096216      34.936552    
     20250   3.0787312      2.3189449      0              6.9347868      35.138016    
     20500   2.9440787      2.3311923      0              6.7451539      34.858292    
     20750   2.9827034      2.4436485      0              6.915519       35.842098    
     21000   2.9608126      2.4138731      0              6.8529235      35.710251    
     21250   2.9126972      2.3895198      0              6.7564323      35.459152    
     21500   3.0696925      2.3395461      0              6.9418365      35.217201    
     21750   2.9178738      2.3664867      0              6.7411602      35.836129    
     22000   3.0174999      2.3836706      0              6.9077103      35.517938    
     22250   2.9364173      2.256272       0              6.6587472      34.286113    
     22500   3.0091128      2.4289468      0              6.9404119      35.914374    
     22750   2.9826366      2.2840973      0              6.7558676      34.709025    
     23000   3.0811736      2.4100907      0              7.0295943      35.980778    
     23250   2.9510054      2.3894707      0              6.8138174      35.562869    
     23500   3.0818666      2.3982255      0              7.0187681      35.947985    
     23750   3.020675       2.3430799      0              6.8718799      34.749112    
     24000   2.9313714      2.4623938      0              6.8573039      36.11901     
     24250   3.0731006      2.3584003      0              6.9658003      35.350202    
     24500   2.9253431      2.4656166      0              6.8514887      36.310481    
     24750   2.9877659      2.3800758      0              6.8595364      35.468382    
     25000   2.9479606      2.3552816      0              6.7750633      35.048662    
     25250   2.9699624      2.4457288      0              6.8984971      36.075852    
     25500   3.0136798      2.2781096      0              6.796422       34.520089    
     25750   3.0672089      2.3422669      0              6.9408339      35.070935    
     26000   2.9904108      2.380936       0              6.864362       35.577833    
     26250   3.0785145      2.4723935      0              7.0879106      36.62006     
     26500   2.9878432      2.3372409      0              6.8168174      34.819565    
     26750   3.0920874      2.3662428      0              7.0021092      35.335989    
     27000   2.9828393      2.2718473      0              6.7439217      34.619903    
     27250   3.051005       2.3484391      0              6.922712       35.065532    
     27500   2.998936       2.3272482      0              6.8234557      34.724553    
     27750   3.0133651      2.367595       0              6.8854355      35.371509    
     28000   2.9334245      2.3258528      0              6.723841       34.955783    
     28250   3.0301132      2.419067       0              6.9620175      35.917075    
     28500   2.941822       2.39935        0              6.8099284      35.428022    
     28750   2.8945919      2.3670254      0              6.7067931      35.165539    
     29000   3.0441156      2.3799409      0              6.9438846      35.577247    
     29250   2.9925825      2.2130398      0              6.6997216      33.625699    
     29500   2.9876596      2.4781888      0              6.95749        36.449055    
     29750   2.9119767      2.397385       0              6.7632173      35.577573    
     30000   3.0397161      2.4238228      0              6.9811706      35.826054    
     30250   2.9723933      2.334233       0              6.7906458      35.204676    
     30500   3.1256593      2.3944169      0              7.0806165      35.527778    
     30750   2.9542028      2.4324122      0              6.8615527      35.938628    
     31000   3.0478689      2.3738514      0              6.9434224      35.497901    
     31250   2.9963495      2.3683401      0              6.8606698      35.26598     
     31500   2.9945319      2.3679985      0              6.8576031      35.470424    
     31750   3.1362852      2.3499402      0              7.0520709      35.442664    
     32000   2.9780572      2.2925823      0              6.7574869      34.611083    
     32250   3.0562933      2.4035842      0              6.9857857      35.94141     
     32500   2.9502214      2.2866689      0              6.7098402      34.556582    
     32750   3.0930488      2.287384       0              6.9246918      34.872269    
     33000   2.9061488      2.2982609      0              6.6553556      34.584402    
     33250   2.9934417      2.3419529      0              6.8299229      35.14584     
     33500   3.0481425      2.3739681      0              6.9439493      35.486454    
     33750   2.8879875      2.3824854      0              6.7123514      35.340289    
     34000   3.0031765      2.4373517      0              6.9399169      35.99429     
     34250   2.9984437      2.2937512      0              6.7892206      34.790811    
     34500   3.0155838      2.3813853      0              6.9025524      35.829683    
     34750   2.9524979      2.3909371      0              6.8175215      35.597483    
     35000   2.9900132      2.362907       0              6.8457369      35.43296     
     35250   3.0218484      2.3606387      0              6.891198       35.46263     
     35500   2.9628519      2.2641013      0              6.706209       34.378143    
     35750   2.9966583      2.4249701      0              6.9177627      36.20699     
     36000   2.851416       2.3857833      0              6.6608188      35.506722    
     36250   3.0448253      2.4044781      0              6.969486       36.00131     
     36500   2.9332632      2.3252159      0              6.7229622      34.829352    
     36750   3.0239962      2.4570248      0              6.9908042      36.368324    
     37000   3.0121639      2.2442163      0              6.7602559      34.246664    
     37250   3.1437748      2.3668903      0              7.0802499      35.482251    
     37500   2.9424117      2.3376385      0              6.749101       35.125396    
     37750   3.0637788      2.3695021      0              6.9629263      35.536716    
     38000   2.9474514      2.2883376      0              6.7073559      34.482081    
     38250   2.9842605      2.4056637      0              6.8798687      35.741253    
     38500   2.9653583      2.337936       0              6.7838016      34.728714    
     38750   3.0910753      2.3502042      0              6.9845532      35.230814    
     39000   2.9204941      2.3548152      0              6.7334174      35.242941    
     39250   2.9898501      2.4177168      0              6.900302       35.531548    
     39500   2.9224014      2.3324398      0              6.7139015      34.978948    
     39750   2.9277654      2.4259945      0              6.8154983      35.693055    
     40000   2.9960831      2.3911623      0              6.8830926      35.669308    
     40250   2.9468012      2.3191802      0              6.7372237      34.791076    
     40500   3.0690934      2.3928018      0              6.994194       35.652094    
     40750   2.9590336      2.3862734      0              6.8226565      35.5098      
     41000   2.9906995      2.4591247      0              6.9429836      36.10901     
     41250   2.9422626      2.4575894      0              6.8688283      36.28977     
     41500   2.9809794      2.4306062      0              6.899892       35.971334    
     41750   2.9905049      2.3813924      0              6.8649594      35.586088    
     42000   2.9858145      2.4070445      0              6.8835794      35.724142    
     42250   3.0155036      2.3350057      0              6.8560525      35.076962    
     42500   2.976395       2.3520119      0              6.8144245      35.507697    
     42750   3.0182383      2.3598032      0              6.8849499      35.276464    
     43000   2.9532683      2.3253363      0              6.7530757      35.010775    
     43250   2.9830624      2.441063       0              6.9134717      35.962533    
     43500   2.9817914      2.296914       0              6.7674171      34.682027    
     43750   3.0439491      2.3873955      0              6.9510897      35.709506    
     44000   3.0764966      2.2348893      0              6.8473809      34.172696    
     44250   2.9854418      2.5203423      0              6.9963184      36.877017    
     44500   2.9858954      2.4288932      0              6.9055494      35.964859    
     44750   3.0454274      2.3129962      0              6.8789068      35.03996     
     45000   3.0214382      2.491424       0              7.0213683      36.743105    
     45250   3.0153862      2.2691912      0              6.7900619      34.463901    
     45500   3.1086792      2.4400302      0              7.1007721      36.087802    
     45750   3.0418764      2.2902243      0              6.850811       34.506694    
     46000   2.9941738      2.4003245      0              6.8893922      35.741081    
     46250   3.0530175      2.3259657      0              6.9032559      34.965102    
     46500   3.0039251      2.3237567      0              6.8274442      35.199913    
     46750   3.0721917      2.3754296      0              6.981467       35.571159    
     47000   2.9401713      2.3444706      0              6.7525741      35.036166    
     47250   3.0745286      2.3989802      0              7.0085213      35.744155    
     47500   2.9265212      2.3573035      0              6.7449419      35.272172    
     47750   2.9953547      2.42609        0              6.9169282      35.940267    
     48000   2.8784735      2.356712       0              6.672314       35.434896    
     48250   2.9706604      2.4677027      0              6.9215175      36.112104    
     48500   2.9625679      2.3082245      0              6.7499064      34.802016    
     48750   2.9457417      2.4697297      0              6.8861847      36.171379    
     49000   3.0090548      2.3139333      0              6.8253116      34.96705     
     49250   3.0616147      2.2923922      0              6.8825718      34.466151    
     49500   2.9918333      2.3880958      0              6.8736544      35.224785    
     49750   3.0337761      2.3120291      0              6.8604711      34.793516    
     50000   2.9555701      2.509969       0              6.9411594      36.571074    
Loop time of 20.1148 on 1 procs for 50000 steps with 2048 atoms

Performance: 1073834.350 tau/day, 2485.728 timesteps/s, 5.091 Matom-step/s
99.7% CPU use with 1 MPI tasks x 1 OpenMP threads

MPI task timing breakdown:
Section |  min time  |  avg time  |  max time  |%varavg| %total
---------------------------------------------------------------
Pair    | 5.9522     | 5.9522     | 5.9522     |   0.0 | 29.59
Neigh   | 11.697     | 11.697     | 11.697     |   0.0 | 58.15
Comm    | 0.79112    | 0.79112    | 0.79112    |   0.0 |  3.93
Output  | 0.0074077  | 0.0074077  | 0.0074077  |   0.0 |  0.04
Modify  | 1.2707     | 1.2707     | 1.2707     |   0.0 |  6.32
Other   |            | 0.3963     |            |       |  1.97

Nlocal:           2048 ave        2048 max        2048 min
Histogram: 1 0 0 0 0 0 0 0 0 0
Nghost:           1608 ave        1608 max        1608 min
Histogram: 1 0 0 0 0 0 0 0 0 0
Neighs:          10836 ave       10836 max       10836 min
Histogram: 1 0 0 0 0 0 0 0 0 0

Total # of neighbors = 10836
Ave neighs/atom = 5.2910156
Neighbor list builds = 10783
Dangerous builds = 0

unfix 1
dump           1 all atom ${run_steps} 3dWCA_T${final_temperature}_d${density}_N${run_steps}.lammpstrj   # 修改4：将文件名前缀改为3d
dump           1 all atom 100000 3dWCA_T${final_temperature}_d${density}_N${run_steps}.lammpstrj   
dump           1 all atom 100000 3dWCA_T0.1_d${density}_N${run_steps}.lammpstrj   
dump           1 all atom 100000 3dWCA_T0.1_d1.1_N${run_steps}.lammpstrj   
dump           1 all atom 100000 3dWCA_T0.1_d1.1_N100000.lammpstrj   
dump           2 all dcd ${thermo_time} 3dWCA_T${final_temperature}_d${density}_N${run_steps}.dcd        # 修改4：将文件名前缀改为3d
dump           2 all dcd 250 3dWCA_T${final_temperature}_d${density}_N${run_steps}.dcd        
dump           2 all dcd 250 3dWCA_T0.1_d${density}_N${run_steps}.dcd        
dump           2 all dcd 250 3dWCA_T0.1_d1.1_N${run_steps}.dcd        
dump           2 all dcd 250 3dWCA_T0.1_d1.1_N100000.dcd        
fix 1 all nvt temp ${initial_temperature} ${final_temperature} ${tau}
fix 1 all nvt temp 3 ${final_temperature} ${tau}
fix 1 all nvt temp 3 0.1 ${tau}
fix 1 all nvt temp 3 0.1 0.5

run ${run_steps}
run 100000
Generated 0 of 0 mixed pair_coeff terms from geometric mixing rule
Per MPI rank memory allocation (min/avg/max) = 3.305 | 3.305 | 3.305 Mbytes
   Step          Temp          E_pair         E_mol          TotEng         Press     
     50000   2.9555701      2.509969       0              6.9411594      36.571074    
     50250   2.9201535      2.3053627      0              6.6834542      34.466508    
     50500   2.9755918      2.398063       0              6.8592714      35.651315    
     50750   2.9090314      2.3715807      0              6.7329971      35.121285    
     51000   3.0758745      2.3162008      0              6.9277598      34.475296    
     51250   2.9111732      2.3511892      0              6.7158168      35.142867    
     51500   2.9526604      2.3972896      0              6.8241177      35.655963    
     51750   3.0371253      2.2776903      0              6.8311538      34.268755    
     52000   2.9203649      2.2840789      0              6.6624873      34.486789    
     52250   3.0495567      2.3252741      0              6.8973756      35.076101    
     52500   2.9555143      2.218089       0              6.6491958      33.963069    
     52750   2.9150557      2.4068063      0              6.7772548      35.735502    
     53000   2.9087735      2.220306       0              6.5813357      33.768761    
     53250   2.9166408      2.3442225      0              6.7170475      34.952133    
     53500   2.9527864      2.1982058      0              6.6252227      33.757278    
     53750   2.8642947      2.2368833      0              6.5312275      34.033164    
     54000   2.9875476      2.2607083      0              6.7398415      34.58359     
     54250   2.8066079      2.2684318      0              6.476288       34.284824    
     54500   2.8605813      2.3387475      0              6.6275243      34.975701    
     54750   2.7165268      2.2955084      0              6.3683089      34.100927    
     55000   2.8399106      2.3254843      0              6.5832701      35.124776    
     55250   2.8002322      2.1199082      0              6.3182055      32.655291    
     55500   2.9167719      2.1712182      0              6.5442397      33.387716    
     55750   2.8381896      2.168003       0              6.4232086      33.383031    
     56000   2.8804369      2.2175571      0              6.5361028      33.892583    
     56250   2.7590811      2.2462487      0              6.3828496      34.100704    
     56500   2.7829511      2.2946294      0              6.4670178      34.310378    
     56750   2.7092828      2.2494909      0              6.3114307      33.767034    
     57000   2.7784869      2.2658896      0              6.431585       33.963255    
     57250   2.8076435      2.1452127      0              6.3546216      33.548825    
     57500   2.8122022      2.1544498      0              6.3706935      33.447385    
     57750   2.7281281      2.1607165      0              6.2509106      33.017579    
     58000   2.8239522      2.1591723      0              6.3930322      33.312278    
     58250   2.7489947      2.1617731      0              6.2832517      33.043572    
     58500   2.7840542      2.2470842      0              6.4211263      33.887088    
     58750   2.7510069      2.1442173      0              6.2687127      33.0604      
     59000   2.7447944      2.1397594      0              6.2549407      32.801026    
     59250   2.8048159      2.1624909      0              6.3676605      33.022199    
     59500   2.7803615      2.0425329      0              6.2110388      32.005622    
     59750   2.7939896      2.0931528      0              6.2820908      32.574955    
     60000   2.6811606      2.0995399      0              6.119317       32.2143      
     60250   2.6951741      2.2227046      0              6.2634918      33.531171    
     60500   2.701921       2.0957179      0              6.1466205      32.464159    
     60750   2.6712543      2.105934       0              6.1108589      32.49978     
     61000   2.7012086      2.0224655      0              6.0722999      31.514983    
     61250   2.6964695      2.1176594      0              6.1603887      32.615238    
     61500   2.6401956      2.1105881      0              6.0689477      32.520067    
     61750   2.6623376      2.0549206      0              6.0464771      32.21355     
     62000   2.6425446      2.1011118      0              6.0629932      32.216823    
     62250   2.7100421      1.9806302      0              6.0437085      31.226428    
     62500   2.6229305      2.0876609      0              6.0201356      32.300285    
     62750   2.6126847      2.1233561      0              6.0404696      32.655449    
     63000   2.6052868      2.0653839      0              5.9714059      32.196085    
     63250   2.5536153      2.106021       0              5.9345736      32.334547    
     63500   2.5907053      2.1445352      0              6.0286957      32.654085    
     63750   2.5741015      2.0433759      0              5.9026428      31.741079    
     64000   2.5702218      2.083797       0              5.9372471      32.327675    
     64250   2.5608353      2.0079899      0              5.8473672      31.387112    
     64500   2.6148089      1.9936062      0              5.9139045      31.260724    
     64750   2.5378096      2.0321702      0              5.8370259      31.639744    
     65000   2.587317       1.9834974      0              5.862578       31.446386    
     65250   2.6181898      1.9437089      0              5.8690761      30.615388    
     65500   2.4990895      1.9573239      0              5.7041278      30.583376    
     65750   2.5760137      2.074291       0              5.9364248      31.886367    
     66000   2.5491442      1.9494981      0              5.7713474      30.709893    
     66250   2.5406429      1.9907982      0              5.7999018      31.262313    
     66500   2.5644992      1.9547854      0              5.799656       30.718578    
     66750   2.5044245      1.9771458      0              5.7319483      30.860473    
     67000   2.5738777      2.0646308      0              5.9235623      31.852832    
     67250   2.4439964      1.9830275      0              5.6472321      30.995369    
     67500   2.5293155      2.0292577      0              5.8213784      31.543934    
     67750   2.4366972      1.9249765      0              5.5782377      30.643823    
     68000   2.5508365      1.9180952      0              5.7424816      30.617011    
     68250   2.417059       1.8921496      0              5.5159678      29.99784     
     68500   2.4518977      2.0041489      0              5.6801997      31.666865    
     68750   2.3656865      1.8692301      0              5.4160272      29.889849    
     69000   2.4644862      1.9445219      0              5.6394461      30.217611    
     69250   2.4025975      1.8192328      0              5.4213693      29.7034      
     69500   2.4387109      1.9313735      0              5.5876536      30.622102    
     69750   2.3962766      1.8961859      0              5.4888456      29.995668    
     70000   2.4514361      1.9043098      0              5.5796685      30.271933    
     70250   2.4054424      1.8704344      0              5.4768362      29.604659    
     70500   2.4404754      1.8668436      0              5.5257693      29.840339    
     70750   2.3528941      1.8109609      0              5.3385787      29.097711    
     71000   2.3870643      1.9098587      0              5.4887068      30.251341    
     71250   2.3864471      1.8421402      0              5.4200629      29.50327     
     71500   2.2981713      1.7281876      0              5.1737613      28.23752     
     71750   2.4350901      1.8206553      0              5.4715069      29.384613    
     72000   2.337742       1.7954926      0              5.3003934      28.980198    
     72250   2.3816555      1.8062433      0              5.3769822      29.399864    
     72500   2.3771973      1.7858936      0              5.3499484      29.092064    
     72750   2.3422473      1.7820296      0              5.2936851      28.964094    
     73000   2.3475266      1.9028085      0              5.422379       30.22294     
     73250   2.3361557      1.7423121      0              5.2448347      28.49938     
     73500   2.3884781      1.7779514      0              5.3589191      29.065072    
     73750   2.2912255      1.7555971      0              5.1907573      28.589069    
     74000   2.3750927      1.7394543      0              5.3003538      28.648126    
     74250   2.2857098      1.7462974      0              5.173188       28.501905    
     74500   2.342926       1.7518001      0              5.2644732      28.581673    
     74750   2.2297963      1.7826532      0              5.1257145      28.726321    
     75000   2.2681773      1.8172548      0              5.2178596      29.266324    
     75250   2.2125746      1.7335429      0              5.0507842      28.222602    
     75500   2.2518812      1.8143884      0              5.1905608      29.119176    
     75750   2.2118925      1.7933091      0              5.1095278      28.86058     
     76000   2.268026       1.7756292      0              5.1760071      28.75228     
     76250   2.216094       1.7727292      0              5.0952471      28.690038    
     76500   2.1922772      1.7842687      0              5.0710789      28.629189    
     76750   2.2901984      1.7684857      0              5.2021059      28.719618    
     77000   2.1820965      1.7504083      0              5.0219548      28.597374    
     77250   2.2040117      1.77136        0              5.0757633      28.679408    
     77500   2.2559146      1.5977476      0              4.9799672      26.936631    
     77750   2.1824736      1.7499899      0              5.0221017      28.500244    
     78000   2.2028326      1.5763388      0              4.8789742      26.659106    
     78250   2.1830472      1.7030971      0              4.976069       27.894293    
     78500   2.167091       1.6723088      0              4.921358       27.60568     
     78750   2.1746684      1.6829881      0              4.943398       27.627829    
     79000   2.1843646      1.6942943      0              4.9692413      27.655505    
     79250   2.1536973      1.6118196      0              4.8407881      26.960537    
     79500   2.2399822      1.6338355      0              4.9921682      27.27808     
     79750   2.1232107      1.6334257      0              4.8166866      27.36322     
     80000   2.1714497      1.6216991      0              4.8772832      26.995867    
     80250   2.1213611      1.6625027      0              4.8429906      27.5473      
     80500   2.1652009      1.5433939      0              4.7896095      26.209516    
     80750   2.1026058      1.6855931      0              4.8379617      27.706738    
     81000   2.0771983      1.6546306      0              4.7689067      27.138353    
     81250   2.0643388      1.6107578      0              4.705754       26.783765    
     81500   2.0562088      1.6751864      0              4.7579936      27.655546    
     81750   2.1211868      1.5394861      0              4.7197127      25.997545    
     82000   2.0966212      1.5654349      0              4.7088311      26.214254    
     82250   2.04569        1.6774315      0              4.7444681      27.455581    
     82500   2.0135399      1.6141434      0              4.6329785      26.698217    
     82750   2.0754184      1.6446925      0              4.7563         27.263035    
     83000   2.0207019      1.5595027      0              4.5890755      26.238444    
     83250   2.0721689      1.5907068      0              4.6974424      26.694915    
     83500   2.0071057      1.5398222      0              4.5490107      25.755922    
     83750   2.0053663      1.5785749      0              4.5851555      26.26336     
     84000   1.9611866      1.5567704      0              4.4971139      26.152012    
     84250   2.010916       1.6419713      0              4.6568724      27.010145    
     84500   2.0033882      1.4895386      0              4.4931535      25.361048    
     84750   1.9753308      1.5766999      0              4.5382493      26.575998    
     85000   1.9567278      1.5289749      0              4.4626334      25.987384    
     85250   1.9954996      1.520955       0              4.5127428      26.041768    
     85500   1.9797129      1.5083444      0              4.4764637      25.628268    
     85750   1.9444185      1.5437724      0              4.458976       26.018009    
     86000   2.021399       1.5042112      0              4.5348292      25.660779    
     86250   1.937948       1.4811421      0              4.3866448      25.394493    
     86500   1.9348866      1.5684497      0              4.4693624      26.189966    
     86750   1.9710063      1.3961217      0              4.3511876      24.478641    
     87000   1.9416591      1.4752745      0              4.386341       25.172056    
     87250   1.9704045      1.4740882      0              4.4282518      25.36642     
     87500   1.8831532      1.4716342      0              4.2949847      25.073902    
     87750   1.9741369      1.4609855      0              4.4207449      25.295747    
     88000   1.8882885      1.4145494      0              4.2455991      24.540534    
     88250   1.923581       1.4751345      0              4.3590971      25.275983    
     88500   1.9049479      1.3572682      0              4.2132948      24.088588    
     88750   1.8957712      1.4453415      0              4.2876098      24.751141    
     89000   1.8859408      1.4025792      0              4.230109       24.480622    
     89250   1.8433931      1.3457968      0              4.1095363      23.614886    
     89500   1.8678933      1.4538389      0              4.2543108      25.119985    
     89750   1.815846       1.402675       0              4.125114       24.209304    
     90000   1.8175608      1.4296334      0              4.1546434      24.669237    
     90250   1.7764429      1.4246333      0              4.0879965      24.490442    
     90500   1.8111546      1.3655754      0              4.0809808      23.753133    
     90750   1.856299       1.3878245      0              4.1709135      24.372789    
     91000   1.7843269      1.359858       0              4.0350414      23.944286    
     91250   1.8108084      1.3773968      0              4.0922831      23.842089    
     91500   1.7212875      1.3147743      0              3.8954449      23.48987     
     91750   1.7371925      1.4523576      0              4.056874       24.772573    
     92000   1.7743103      1.3093862      0              3.9695521      23.276637    
     92250   1.7596095      1.3782899      0              4.0164153      23.938014    
     92500   1.7276989      1.3834679      0              3.9737509      24.257139    
     92750   1.7547392      1.3187702      0              3.9495938      23.156146    
     93000   1.7581542      1.3570888      0              3.9930325      23.702946    
     93250   1.7109012      1.329191       0              3.8942896      23.426622    
     93500   1.7589205      1.3791691      0              4.0162615      24.12952     
     93750   1.722417       1.2865937      0              3.8689578      22.727291    
     94000   1.7292295      1.341944       0              3.9345218      23.778149    
     94250   1.7072117      1.3355531      0              3.8951203      23.230854    
     94500   1.6703557      1.3351295      0              3.8394397      23.520371    
     94750   1.7479305      1.3189541      0              3.9395697      23.372096    
     95000   1.6693941      1.2844427      0              3.7873112      23.072861    
     95250   1.7314163      1.2984498      0              3.8943061      23.158093    
     95500   1.6227219      1.3104709      0              3.7433652      23.140475    
     95750   1.7199182      1.2458059      0              3.8244234      22.416146    
     96000   1.6249733      1.2893868      0              3.7256567      22.851327    
     96250   1.6520533      1.2823143      0              3.7591842      22.808552    
     96500   1.6401418      1.1949948      0              3.6540061      21.780399    
     96750   1.6709818      1.2681202      0              3.7733689      22.581511    
     97000   1.6457919      1.2244158      0              3.6918982      21.826253    
     97250   1.6273112      1.2055622      0              3.6453372      21.939199    
     97500   1.6223093      1.2631313      0              3.695407       22.70981     
     97750   1.5921287      1.2264879      0              3.6135149      22.163523    
     98000   1.671189       1.2872873      0              3.7928468      22.804713    
     98250   1.6014686      1.1785503      0              3.5795803      21.405964    
     98500   1.626981       1.1473895      0              3.5866693      21.247992    
     98750   1.5761784      1.2213775      0              3.5844907      22.087621    
     99000   1.5923087      1.1660969      0              3.5533937      21.473052    
     99250   1.5554173      1.2330872      0              3.565074       22.259853    
     99500   1.5430446      1.1465005      0              3.4599373      21.226249    
     99750   1.5881239      1.1765428      0              3.5575654      21.501764    
    100000   1.5222507      1.2042329      0              3.4864941      21.915799    
    100250   1.5483067      1.1718084      0              3.4931344      21.283194    
    100500   1.5079031      1.1435463      0              3.4042965      21.182718    
    100750   1.577647       1.1493808      0              3.5146958      21.148704    
    101000   1.5084603      1.1463409      0              3.4079265      20.946465    
    101250   1.5134237      1.1398082      0              3.4088354      21.022348    
    101500   1.5323991      1.078881       0              3.3763573      20.363871    
    101750   1.4959598      1.1216474      0              3.3644915      20.774065    
    102000   1.4785527      1.1055897      0              3.3223358      20.750916    
    102250   1.4895666      1.1492416      0              3.3825005      20.9986      
    102500   1.4619782      1.1264063      0              3.3183027      20.747622    
    102750   1.4783085      1.0740634      0              3.2904434      20.274222    
    103000   1.5114431      1.1434707      0              3.4095284      21.080413    
    103250   1.4455975      1.0831937      0              3.2505311      20.417298    
    103500   1.4570806      1.0619379      0              3.2464916      20.030373    
    103750   1.4295482      1.0999065      0              3.2431817      20.660374    
    104000   1.437325       1.0521127      0              3.2070475      19.985642    
    104250   1.473595       1.1008232      0              3.3101364      20.554464    
    104500   1.4275654      1.0036755      0              3.143978       19.319261    
    104750   1.4405946      1.0631721      0              3.2230089      20.048102    
    105000   1.3850284      1.0312734      0              3.1078016      19.704032    
    105250   1.4178671      1.0578068      0              3.1835691      19.990685    
    105500   1.3717727      0.98989455     0              3.0465488      19.112135    
    105750   1.3931102      1.0645274      0              3.1531724      20.071661    
    106000   1.3521912      0.96557685     0              2.9928733      18.806413    
    106250   1.3819334      1.0270006      0              3.0988886      19.553233    
    106500   1.3357908      0.99080593     0              2.9935138      19.108743    
    106750   1.3806376      0.97465133     0              3.0445965      18.814987    
    107000   1.3567954      0.97134105     0              3.0055405      18.818317    
    107250   1.3357733      0.98345433     0              2.9861359      19.068965    
    107500   1.293798       0.98784691     0              2.9275964      19.244693    
    107750   1.3219542      1.0104348      0              2.9923979      19.38512     
    108000   1.3232488      0.9437815      0              2.9276855      18.448309    
    108250   1.3005253      0.90801872     0              2.8578542      17.915502    
    108500   1.344365       0.9402029      0              2.9557657      18.439429    
    108750   1.2924599      0.94333262     0              2.8810759      18.568271    
    109000   1.3116901      0.90736791     0              2.8739423      18.070618    
    109250   1.2896782      0.87851233     0              2.8120851      17.703693    
    109500   1.285526       0.96372344     0              2.891071       18.723058    
    109750   1.2535002      0.94836018     0              2.8276924      18.474887    
    110000   1.2556164      0.91883527     0              2.8013403      18.085014    
    110250   1.2535903      0.8790678      0              2.7585351      17.663562    
    110500   1.2528532      0.92972864     0              2.8080908      18.442081    
    110750   1.2071392      0.88697964     0              2.6968042      17.680878    
    111000   1.2533203      0.8957892      0              2.7748517      17.875397    
    111250   1.214346       0.89300227     0              2.7136319      17.732769    
    111500   1.2067182      0.89209281     0              2.7012863      17.685501    
    111750   1.1828461      0.90864666     0              2.6820495      17.828052    
    112000   1.2078503      0.8587155      0              2.6696063      17.407224    
    112250   1.2072503      0.86906767     0              2.6790589      17.422125    
    112500   1.1824048      0.82255863     0              2.5952998      16.911582    
    112750   1.2096378      0.85312095     0              2.6666916      17.250171    
    113000   1.1698952      0.81006242     0              2.5640484      16.761696    
    113250   1.2141327      0.8447347      0              2.6650445      17.097472    
    113500   1.1637112      0.81881174     0              2.5635261      16.715168    
    113750   1.1624441      0.81368476     0              2.5564995      16.617422    
    114000   1.1453722      0.81244738     0              2.5296667      16.825151    
    114250   1.1353326      0.81672469     0              2.518892       16.667997    
    114500   1.1447981      0.8313929      0              2.5477516      16.853434    
    114750   1.1001818      0.81945809     0              2.4689251      16.550027    
    115000   1.1542099      0.81876149     0              2.549231       16.758831    
    115250   1.0867435      0.8055608      0              2.4348801      16.432841    
    115500   1.117795       0.80195513     0              2.4778289      16.497514    
    115750   1.0843972      0.78425611     0              2.4100576      16.296906    
    116000   1.0666901      0.7959918      0              2.3952456      16.241194    
    116250   1.0880901      0.75211707     0              2.3834552      15.811938    
    116500   1.0518995      0.75029648     0              2.3273754      15.811734    
    116750   1.1068847      0.74611949     0              2.4056358      15.742006    
    117000   1.0447937      0.74201953     0              2.3084448      15.653779    
    117250   1.0294175      0.78937725     0              2.3327496      16.140656    
    117500   1.0192793      0.73827062     0              2.2664431      15.541872    
    117750   1.0741998      0.729088       0              2.3396009      15.511065    
    118000   1.0135868      0.72105068     0              2.2406885      15.417794    
    118250   1.028496       0.75904914     0              2.3010399      15.793989    
    118500   0.99563205     0.71364572     0              2.2063646      15.154652    
    118750   1.0206822      0.72289339     0              2.2531691      15.360945    
    119000   0.97991868     0.69659603     0              2.1657563      14.959702    
    119250   1.0209702      0.68184783     0              2.2125554      14.639988    
    119500   0.98499216     0.68560566     0              2.1623725      14.751573    
    119750   0.97829354     0.68075483     0              2.1474786      14.765954    
    120000   0.99584878     0.62150466     0              2.1145485      13.893801    
    120250   0.98164568     0.66980891     0              2.1415584      14.768996    
    120500   0.94895672     0.66585752     0              2.0885976      14.485454    
    120750   0.93838694     0.63002607     0              2.0369192      13.943732    
    121000   0.94083605     0.69403177     0              2.1045968      14.870397    
    121250   0.9127912      0.67087167     0              2.0393899      14.453035    
    121500   0.93277622     0.63761461     0              2.0360958      14.093095    
    121750   0.90653504     0.62946064     0              1.9885992      13.826959    
    122000   0.91368147     0.6642597      0              2.0341127      14.606538    
    122250   0.93455806     0.58818516     0              1.9893378      13.437855    
    122500   0.91302241     0.60545622     0              1.9743211      13.636902    
    122750   0.88231609     0.6228647      0              1.9456926      13.95118     
    123000   0.87724311     0.59780188     0              1.913024       13.474569    
    123250   0.87753868     0.62757606     0              1.9432414      14.056428    
    123500   0.86672444     0.59043632     0              1.8898882      13.371037    
    123750   0.82572667     0.59253662     0              1.8305218      13.423691    
    124000   0.89564032     0.55384489     0              1.8966494      12.93263     
    124250   0.84746051     0.56719657     0              1.8377666      13.040393    
    124500   0.84834892     0.57068022     0              1.8425822      13.113606    
    124750   0.83294594     0.57008305     0              1.8188919      13.082439    
    125000   0.81353679     0.54229219     0              1.7620015      12.692905    
    125250   0.82812471     0.55707392     0              1.7986544      12.845422    
    125500   0.80624977     0.55288162     0              1.7616658      12.733172    
    125750   0.78695174     0.56419482     0              1.744046       12.994001    
    126000   0.7685074      0.54382867     0              1.6960269      12.690701    
    126250   0.7786109      0.57586212     0              1.7432082      13.160361    
    126500   0.76883773     0.5251238      0              1.6778173      12.377189    
    126750   0.79036189     0.51265152     0              1.6976155      12.282584    
    127000   0.76708308     0.49110939     0              1.6411722      11.862907    
    127250   0.78133476     0.48878504     0              1.6602149      11.754414    
    127500   0.75557176     0.4996669      0              1.6324711      11.854958    
    127750   0.73460429     0.50823958     0              1.609608       11.978431    
    128000   0.75101906     0.47874484     0              1.6047234      11.603858    
    128250   0.70485293     0.47525936     0              1.5320225      11.522354    
    128500   0.73333041     0.47464508     0              1.5741036      11.493036    
    128750   0.71067086     0.45671514     0              1.5222009      11.220391    
    129000   0.72121156     0.4558307      0              1.5371198      11.090326    
    129250   0.69115542     0.45682746     0              1.4930544      11.279408    
    129500   0.72564556     0.43177972     0              1.5197166      10.820525    
    129750   0.6773549      0.46259884     0              1.4781351      11.330847    
    130000   0.68180302     0.43571071     0              1.4579159      10.782825    
    130250   0.66723808     0.42843362     0              1.428802       10.709675    
    130500   0.67012286     0.43741207     0              1.4421056      11.014501    
    130750   0.66657494     0.41358072     0              1.4129549      10.419508    
    131000   0.62978895     0.4101272      0              1.3543494      10.443723    
    131250   0.6550638      0.41895386     0              1.4010698      10.624111    
    131500   0.63210413     0.39905312     0              1.3467463      10.14862     
    131750   0.65100989     0.42894444     0              1.4049825      10.599412    
    132000   0.62761131     0.39183533     0              1.3327926      10.164912    
    132250   0.62864795     0.36802035     0              1.3105318      9.7950547    
    132500   0.61763518     0.39969977     0              1.3257002      10.233499    
    132750   0.60077031     0.37905843     0              1.2797739      9.8452242    
    133000   0.59389711     0.36046867     0              1.2508794      9.6553857    
    133250   0.59003994     0.389926       0              1.2745538      10.090708    
    133500   0.56959158     0.37021395     0              1.2241841      9.6830507    
    133750   0.58029957     0.34734745     0              1.2173718      9.353675     
    134000   0.56082471     0.34021158     0              1.1810379      9.2411213    
    134250   0.5798636      0.34714746     0              1.2165182      9.2730514    
    134500   0.55089181     0.33746522     0              1.1633994      9.1698996    
    134750   0.54416166     0.33190415     0              1.1477481      9.1045198    
    135000   0.51920617     0.3287586      0              1.1071876      9.0405646    
    135250   0.54161355     0.33548186     0              1.1475055      9.1047692    
    135500   0.52103856     0.31757076     0              1.098747       8.7504766    
    135750   0.51256323     0.30580772     0              1.0742772      8.6229106    
    136000   0.49771178     0.32047463     0              1.0666778      8.8411805    
    136250   0.50513136     0.30776073     0              1.0650878      8.5439512    
    136500   0.49692728     0.28168055     0              1.0267075      8.0851039    
    136750   0.47098833     0.28001653     0              0.98615406     8.0088582    
    137000   0.47913835     0.30249179     0              1.0208484      8.4867974    
    137250   0.4740762      0.2784232      0              0.98919027     8.0865449    
    137500   0.46602586     0.27320706     0              0.97190452     7.9665168    
    137750   0.4447089      0.26626129     0              0.93299893     7.7967454    
    138000   0.45599337     0.28343771     0              0.96709379     8.0176633    
    138250   0.44406265     0.25731295     0              0.92308169     7.5629818    
    138500   0.42999605     0.25751953     0              0.90219866     7.5973584    
    138750   0.43161606     0.25497908     0              0.90208705     7.5589896    
    139000   0.41413119     0.26421271     0              0.88510617     7.7934198    
    139250   0.40776549     0.24116032     0              0.8525099      7.3519044    
    139500   0.39971048     0.22163109     0              0.82090405     6.8690341    
    139750   0.40237643     0.24281247     0              0.8460824      7.2908707    
    140000   0.3954544      0.22222778     0              0.81511973     6.8975765    
    140250   0.37853191     0.21877061     0              0.78629123     6.8719204    
    140500   0.36550697     0.21006877     0              0.75806151     6.6674345    
    140750   0.37619384     0.21937692     0              0.78339214     6.7330824    
    141000   0.36468258     0.20118398     0              0.74794075     6.4688159    
    141250   0.35215974     0.19538513     0              0.72336681     6.3521753    
    141500   0.34281804     0.17583519     0              0.68981116     5.9191235    
    141750   0.35012875     0.19378724     0              0.71872392     6.2463094    
    142000   0.33498191     0.17821979     0              0.68044732     5.9479483    
    142250   0.3219447      0.17737419     0              0.66005545     5.866239     
    142500   0.31484847     0.16273715     0              0.63477926     5.6110525    
    142750   0.32480123     0.16552899     0              0.65249294     5.683483     
    143000   0.30335535     0.1589583      0              0.61376915     5.5139096    
    143250   0.29343918     0.15896699     0              0.59891084     5.4252138    
    143500   0.2787457      0.15471374     0              0.57262813     5.3463208    
    143750   0.29672917     0.14460298     0              0.58947941     5.1719494    
    144000   0.27624006     0.13826834     0              0.5524261      5.0252726    
    144250   0.26485657     0.13474433     0              0.5318352      4.871892     
    144500   0.25393651     0.12947788     0              0.51019665     4.7242228    
    144750   0.26007115     0.12755122     0              0.51746746     4.7476162    
    145000   0.24214241     0.12668036     0              0.48971662     4.6684637    
    145250   0.23435076     0.11761786     0              0.46897236     4.525607     
    145500   0.22985075     0.11744526     0              0.46205303     4.4671256    
    145750   0.22284774     0.11456791     0              0.44867631     4.3567995    
    146000   0.21290136     0.10967984     0              0.42887594     4.2804324    
    146250   0.20036378     0.10381218     0              0.40421109     4.1764016    
    146500   0.21010909     0.10625878     0              0.42126852     4.1756077    
    146750   0.19746271     0.090960234    0              0.38700968     3.8313437    
    147000   0.18763476     0.086225511    0              0.36754023     3.6766769    
    147250   0.17914919     0.081356235    0              0.34994881     3.5205441    
    147500   0.17298775     0.078202407    0              0.33755732     3.4656397    
    147750   0.16675243     0.076636248    0              0.32664277     3.4173176    
    148000   0.15845729     0.071920261    0              0.30949014     3.2039832    
    148250   0.15148276     0.068311422    0              0.29542461     3.1357859    
    148500   0.14574082     0.064533274    0              0.28303775     2.989772     
    148750   0.14032401     0.055731135    0              0.26611437     2.7484903    
    149000   0.1294369      0.055967018    0              0.25002757     2.6914704    
    149250   0.12461302     0.048419526    0              0.23524779     2.4662664    
    149500   0.11449857     0.050073435    0              0.22173743     2.5550955    
    149750   0.10878407     0.044124308    0              0.20722074     2.3742648    
    150000   0.10198999     0.038979329    0              0.19188961     2.1707363    
Loop time of 31.8555 on 1 procs for 100000 steps with 2048 atoms

Performance: 1356123.125 tau/day, 3139.174 timesteps/s, 6.429 Matom-step/s
99.3% CPU use with 1 MPI tasks x 1 OpenMP threads

MPI task timing breakdown:
Section |  min time  |  avg time  |  max time  |%varavg| %total
---------------------------------------------------------------
Pair    | 10.791     | 10.791     | 10.791     |   0.0 | 33.88
Neigh   | 16.39      | 16.39      | 16.39      |   0.0 | 51.45
Comm    | 1.274      | 1.274      | 1.274      |   0.0 |  4.00
Output  | 0.14481    | 0.14481    | 0.14481    |   0.0 |  0.45
Modify  | 2.5405     | 2.5405     | 2.5405     |   0.0 |  7.97
Other   |            | 0.7148     |            |       |  2.24

Nlocal:           2048 ave        2048 max        2048 min
Histogram: 1 0 0 0 0 0 0 0 0 0
Nghost:           1605 ave        1605 max        1605 min
Histogram: 1 0 0 0 0 0 0 0 0 0
Neighs:          11616 ave       11616 max       11616 min
Histogram: 1 0 0 0 0 0 0 0 0 0

Total # of neighbors = 11616
Ave neighs/atom = 5.671875
Neighbor list builds = 15146
Dangerous builds = 0
Total wall time: 0:00:51
