LAMMPS (15 Sep 2022)
OMP_NUM_THREADS environment is not set. Defaulting to 1 thread. (src/comm.cpp:98)
  using 1 OpenMP thread(s) per MPI task
# 3d WCA system, random initial configuration

#variable density equal 0.6
variable initial_temperature equal 3.0
variable final_temperature equal 0.1
variable dt equal 0.005
variable tau equal 100*${dt}
variable tau equal 100*0.005
variable thermo_time equal 50000*${dt}
variable thermo_time equal 50000*0.005
variable equil_steps equal 50000
variable run_steps equal 100000

units           lj
atom_style      atomic
dimension       3                # 修改1：将维度改为3

lattice         fcc ${density}   # 修改2：将晶格类型改为 fcc
lattice         fcc 1.4   
Lattice spacing in x,y,z = 1.4189834 1.4189834 1.4189834
region          box block 0 8 0 8 0 8    # 修改3：调整区域大小为 8x8x8

# number of atom types
create_box      1 box
Created orthogonal box = (0 0 0) to (11.351867 11.351867 11.351867)
  1 by 1 by 1 MPI processor grid
create_atoms    1 box
Created 2048 atoms
  using lattice units in orthogonal box = (0 0 0) to (11.351867 11.351867 11.351867)
  create_atoms CPU = 0.000 seconds
mass 1 1.0

velocity all create ${initial_temperature} 12345
velocity all create 3 12345

pair_style      lj/cut 1.0
#type_1 type_2 epsilon sigma cutoff
pair_coeff      1 1 10.0 0.89089871814 1.0
pair_modify shift yes

timestep ${dt}
timestep 0.005
thermo ${thermo_time}
thermo 250

fix 1 all nvt temp ${initial_temperature} ${initial_temperature} ${tau}
fix 1 all nvt temp 3 ${initial_temperature} ${tau}
fix 1 all nvt temp 3 3 ${tau}
fix 1 all nvt temp 3 3 0.5
run ${equil_steps}
run 50000
Generated 0 of 0 mixed pair_coeff terms from geometric mixing rule
Neighbor list info ...
  update: every = 1 steps, delay = 0 steps, check = yes
  max neighbors/atom: 2000, page size: 100000
  master list distance cutoff = 1.3
  ghost atom cutoff = 1.3
  binsize = 0.65, bins = 18 18 18
  1 neighbor lists, perpetual/occasional/extra = 1 0 0
  (1) pair lj/cut, perpetual
      attributes: half, newton on
      pair build: half/bin/atomonly/newton
      stencil: half/bin/3d
      bin: standard
Per MPI rank memory allocation (min/avg/max) = 3.156 | 3.156 | 3.156 Mbytes
   Step          Temp          E_pair         E_mol          TotEng         Press     
         0   3              0              0              4.4978027      4.1979492    
       250   2.1200814      2.7020466      0              5.8806159      58.031697    
       500   2.8459275      3.4661346      0              7.7329414      68.909279    
       750   3.2088126      3.6894575      0              8.5003261      71.605659    
      1000   2.8438641      3.5938307      0              7.8575439      70.163866    
      1250   3.0367362      3.8087153      0              8.3615954      72.864235    
      1500   2.9910296      3.5544697      0              8.0388234      69.706666    
      1750   2.9209047      3.7699328      0              8.1491506      72.499866    
      2000   3.0301575      3.6928003      0              8.2358171      71.509235    
      2250   2.9520013      3.5762         0              8.0020399      69.766166    
      2500   3.0455533      3.7533529      0              8.3194523      72.33113     
      2750   3.0033218      3.4956236      0              7.9984066      69.172227    
      3000   3.0346406      3.6933642      0              8.2431025      71.478584    
      3250   3.0080067      3.6044706      0              8.1142775      70.454359    
      3500   2.9412311      3.7127162      0              8.1224087      71.775691    
      3750   3.0641101      3.6296754      0              8.2235963      70.801398    
      4000   2.9347973      3.6356971      0              8.0357436      70.370826    
      4250   2.9919161      3.7867766      0              8.2724594      72.421511    
      4500   2.9053199      3.6349957      0              7.9908477      70.400333    
      4750   3.0181975      3.6526804      0              8.1777661      70.890565    
      5000   2.9415107      3.597987       0              8.0080986      70.284982    
      5250   2.990717       3.6395122      0              8.1233972      70.161206    
      5500   2.9946325      3.6870836      0              8.176839       71.210216    
      5750   2.9174282      3.5959816      0              7.9699871      69.893264    
      6000   2.9385231      3.7777481      0              8.1833805      72.392825    
      6250   2.9345634      3.6069245      0              8.0066202      70.44873     
      6500   3.0801413      3.6563645      0              8.2743204      71.190585    
      6750   2.9707683      3.5732882      0              8.0272648      70.09627     
      7000   2.9640392      3.6824265      0              8.1263144      70.885354    
      7250   3.0608978      3.6736475      0              8.2627523      71.40287     
      7500   2.9233307      3.6283854      0              8.0112403      70.461393    
      7750   3.0602382      3.7019912      0              8.2901071      71.954442    
      8000   2.9701981      3.6679416      0              8.1210632      70.972148    
      8250   3.0474815      3.6987104      0              8.2677007      71.221824    
      8500   3.0282086      3.6208922      0              8.1609872      70.599667    
      8750   3.0239687      3.6047794      0              8.1385176      69.918934    
      9000   2.9952158      3.84916        0              8.3397899      73.016097    
      9250   2.9465128      3.7008677      0              8.1184788      71.269843    
      9500   3.0131027      3.7351463      0              8.2525935      71.454499    
      9750   2.9389314      3.6406187      0              8.0468634      70.424534    
     10000   3.0650288      3.6185779      0              8.2138762      70.857818    
     10250   3.0450653      3.6118846      0              8.1772522      70.434062    
     10500   2.9279866      3.6453496      0              8.0351849      70.860998    
     10750   3.0443253      3.7370497      0              8.3013079      71.698035    
     11000   2.923355       3.6575944      0              8.0404857      70.96672     
     11250   3.0489388      3.6139505      0              8.1851256      70.584169    
     11500   2.9873497      3.567485       0              8.0463216      69.976102    
     11750   3.0499812      3.6266924      0              8.1994303      70.544737    
     12000   3.0127752      3.609579       0              8.1265351      70.61591     
     12250   2.8043099      3.5010372      0              7.7054481      68.468965    
     12500   3.0133545      3.6682392      0              8.1860639      70.690489    
     12750   3.0437366      3.5845642      0              8.1479399      70.249891    
     13000   3.0063796      3.6318769      0              8.1392444      70.559642    
     13250   3.1007703      3.5816641      0              8.2305486      70.112058    
     13500   2.9012234      3.7235623      0              8.0732725      71.823877    
     13750   3.0230053      3.8066118      0              8.3389057      72.576105    
     14000   2.9790093      3.6396609      0              8.105993       70.308682    
     14250   3.0739239      3.7338265      0              8.342461       72.015197    
     14500   2.9925315      3.6596822      0              8.1462876      70.661941    
     14750   3.0260638      3.6035416      0              8.140421       70.079246    
     15000   3.0808442      3.7004352      0              8.3194451      71.179195    
     15250   2.9510303      3.6369999      0              8.061384       70.230139    
     15500   3.0503071      3.7337125      0              8.306939       71.725735    
     15750   2.9960425      3.5223802      0              8.0142496      69.042741    
     16000   3.0680371      3.6617204      0              8.2615289      70.762118    
     16250   2.9371198      3.6726688      0              8.0761972      70.86398     
     16500   3.022608       3.6188494      0              8.1505475      70.436671    
     16750   3.0064051      3.6886439      0              8.1960497      71.113308    
     17000   2.9839849      3.5634771      0              8.0372689      69.540807    
     17250   2.9560352      3.763355       0              8.1952428      71.917054    
     17500   2.8920928      3.6727832      0              8.0088042      70.653269    
     17750   3.0464147      3.7068989      0              8.2742897      72.039724    
     18000   3.0129546      3.5113867      0              8.0286119      69.177097    
     18250   2.9354856      3.7384355      0              8.1395139      71.786925    
     18500   3.0083678      3.6711439      0              8.1814922      71.269386    
     18750   2.924738       3.6480799      0              8.0330449      70.875514    
     19000   3.0453286      3.673431       0              8.2391934      70.853601    
     19250   2.9563628      3.6847816      0              8.1171605      71.061365    
     19500   2.9847544      3.6864566      0              8.1614021      71.154071    
     19750   3.0530556      3.7543312      0              8.3316784      72.130026    
     20000   2.9773703      3.590345       0              8.0542198      70.101234    
     20250   3.1696407      3.6211159      0              8.3732554      70.789425    
     20500   2.983133       3.5742069      0              8.0467215      69.698014    
     20750   3.0041939      3.7541508      0              8.2582413      71.865532    
     21000   2.9424351      3.5834173      0              7.9949148      70.135589    
     21250   2.9558468      3.7362375      0              8.1678427      71.612299    
     21500   3.0101512      3.6399111      0              8.1529332      70.484029    
     21750   2.9972878      3.6446538      0              8.1383903      70.899059    
     22000   2.9904817      3.6848688      0              8.1684012      71.441466    
     22250   2.9523588      3.7150117      0              8.1413875      71.659025    
     22500   2.9852512      3.5817896      0              8.0574799      70.208788    
     22750   3.0286462      3.7219326      0              8.2626836      71.967256    
     23000   2.9741059      3.6242024      0              8.083183       70.407036    
     23250   3.063798       3.6540327      0              8.2474858      70.999285    
     23500   3.0347134      3.4948619      0              8.0447094      69.280018    
     23750   2.9824509      3.7770123      0              8.2485042      72.54347     
     24000   2.9486263      3.7613314      0              8.1821112      71.657043    
     24250   2.9669373      3.6505097      0              8.0987426      70.84023     
     24500   3.1140205      3.6200048      0              8.2887548      70.523606    
     24750   2.9583387      3.6223399      0              8.0576812      70.563413    
     25000   3.0213687      3.68233        0              8.2121701      71.045055    
     25250   2.9861567      3.4558873      0              7.9329351      68.023709    
     25500   2.9906328      3.7510013      0              8.2347601      72.093318    
     25750   2.9399168      3.5378908      0              7.9456127      69.18327     
     26000   3.0632887      3.5870193      0              8.1797086      70.236391    
     26250   2.9731459      3.6425866      0              8.1001279      70.54606     
     26500   2.9889497      3.6963479      0              8.1775833      70.97338     
     26750   2.9849736      3.6691681      0              8.1444423      70.792817    
     27000   2.9822559      3.6385171      0              8.1097166      70.662699    
     27250   2.9658422      3.7504626      0              8.1970538      71.931411    
     27500   2.9796942      3.5840216      0              8.0513805      70.153617    
     27750   2.978866       3.7276021      0              8.1937193      71.64456     
     28000   2.8487289      3.5938577      0              7.8648646      69.962987    
     28250   2.9896084      3.6532241      0              8.135447       70.348727    
     28500   3.0248941      3.6844468      0              8.2195725      71.372195    
     28750   2.9034801      3.6683718      0              8.0214654      70.879861    
     29000   3.0004381      3.6881313      0              8.1865908      71.316903    
     29250   2.9070596      3.6597048      0              8.018165       70.717644    
     29500   2.9958701      3.6763838      0              8.1679946      70.97682     
     29750   2.9768575      3.6685473      0              8.1316533      70.716184    
     30000   2.9577372      3.6507085      0              8.085148       70.857213    
     30250   3.0045947      3.6836605      0              8.1883519      71.104675    
     30500   2.936807       3.6837006      0              8.0867602      70.915135    
     30750   3.0592147      3.7097422      0              8.2963237      71.15586     
     31000   3.0060094      3.5516647      0              8.0584771      69.402529    
     31250   3.0546291      3.7801453      0              8.3598517      72.476199    
     31500   3.019594       3.5933989      0              8.1205783      70.332699    
     31750   3.0161892      3.7029178      0              8.2249924      71.390488    
     32000   3.0584822      3.6078194      0              8.1933025      70.439496    
     32250   3.0379326      3.5749997      0              8.1296735      70.061155    
     32500   3.1181976      3.6788399      0              8.3538525      71.272373    
     32750   2.98291        3.576634       0              8.0488142      69.934471    
     33000   3.0492324      3.7315486      0              8.3031639      71.497446    
     33250   2.9731086      3.5583925      0              8.0158778      69.597603    
     33500   3.0234308      3.7174592      0              8.250391       71.304387    
     33750   2.9703291      3.5464664      0              7.9997844      69.486887    
     34000   2.9551212      3.6580655      0              8.0885829      71.274723    
     34250   3.0430267      3.6663039      0              8.2286152      70.838413    
     34500   2.9338241      3.6063035      0              8.0048909      70.181116    
     34750   2.9977949      3.6808559      0              8.1753525      71.100548    
     35000   2.9131199      3.618429       0              7.9859752      70.438036    
     35250   3.0063429      3.6727541      0              8.1800666      71.328785    
     35500   2.9841893      3.6431779      0              8.1172762      70.78334     
     35750   2.8955606      3.6228822      0              7.9641023      70.428036    
     36000   3.0821031      3.5930518      0              8.213949       70.264915    
     36250   2.9302863      3.6057961      0              7.9990794      70.501022    
     36500   3.103024       3.6181476      0              8.2704109      70.462711    
     36750   2.9711025      3.6124101      0              8.0668877      70.375261    
     37000   3.0828217      3.8401859      0              8.4621606      73.653648    
     37250   2.9835898      3.6729979      0              8.1461973      71.436724    
     37500   2.9848251      3.6668725      0              8.141924       71.149546    
     37750   3.0017761      3.7466462      0              8.2471118      72.230524    
     38000   3.0255551      3.5872828      0              8.1233994      69.866619    
     38250   3.0494903      3.735074       0              8.3070758      71.784418    
     38500   2.996722       3.5504351      0              8.0433232      69.583621    
     38750   3.0288804      3.6912829      0              8.2323851      71.260884    
     39000   3.0334747      3.7172255      0              8.2652157      71.721219    
     39250   2.9752966      3.5866819      0              8.0474477      70.345184    
     39500   3.0546564      3.7064706      0              8.2862179      71.432997    
     39750   2.9585675      3.6756132      0              8.1112974      70.832233    
     40000   3.0106588      3.7096332      0              8.2234163      71.453985    
     40250   2.9858443      3.526235       0              8.0028145      68.983523    
     40500   3.0575653      3.6826152      0              8.2667237      71.559875    
     40750   2.9432201      3.6818926      0              8.0945671      71.265792    
     41000   3.0306007      3.7380678      0              8.2817491      71.536211    
     41250   2.9818554      3.6421162      0              8.1127153      70.607148    
     41500   3.0471221      3.5961247      0              8.1645761      70.3884      
     41750   3.1319874      3.6728995      0              8.3685866      71.459776    
     42000   2.9380556      3.691763       0              8.0966946      71.19488     
     42250   3.0342042      3.6438383      0              8.1929222      70.874935    
     42500   3.0006055      3.6905997      0              8.1893102      71.589806    
     42750   2.9637886      3.6950313      0              8.1385434      71.606089    
     43000   3.0410707      3.708956       0              8.2683346      71.949587    
     43250   2.9291547      3.6295773      0              8.021164       71.073945    
     43500   3.0799705      3.683316       0              8.3010159      71.484532    
     43750   2.9689353      3.6802331      0              8.1314616      70.85276     
     44000   3.0164595      3.6746077      0              8.1970877      71.388764    
     44250   3.0074614      3.669948       0              8.1789374      71.260269    
     44500   2.9947217      3.6390321      0              8.1289213      70.622815    
     44750   3.1095922      3.7666415      0              8.4287523      72.646028    
     45000   2.9262202      3.7380486      0              8.1252357      71.996216    
     45250   2.9738137      3.7458095      0              8.2043519      71.934652    
     45500   2.991083       3.6745065      0              8.1589403      71.164397    
     45750   2.9757833      3.6746323      0              8.1361277      71.005048    
     46000   3.0264202      3.8136623      0              8.3510761      72.879488    
     46250   2.9105974      3.6708919      0              8.0346563      70.902853    
     46500   3.0821496      3.6867157      0              8.3076827      71.506296    
     46750   2.9899636      3.60108        0              8.0838355      70.237274    
     47000   3.0677076      3.6030087      0              8.2023232      70.56827     
     47250   2.9469173      3.6617192      0              8.0799368      70.929402    
     47500   2.9754672      3.7066506      0              8.1676721      71.56823     
     47750   2.9785209      3.7007568      0              8.1663567      71.589387    
     48000   2.900706       3.6711636      0              8.0200981      70.915457    
     48250   3.0452759      3.7232754      0              8.2889588      71.871537    
     48500   2.89503        3.686618       0              8.0270426      71.272155    
     48750   2.9825289      3.7053339      0              8.1769427      71.681026    
     49000   2.9295287      3.5980912      0              7.9902386      70.473045    
     49250   2.9598304      3.7484386      0              8.1860164      71.668681    
     49500   2.9643103      3.6699043      0              8.1141986      70.957721    
     49750   2.9431091      3.5637649      0              7.976273       69.590631    
     50000   3.0236723      3.6624638      0              8.1957576      71.033946    
Loop time of 18.5673 on 1 procs for 50000 steps with 2048 atoms

Performance: 1163337.723 tau/day, 2692.911 timesteps/s, 5.515 Matom-step/s
99.6% CPU use with 1 MPI tasks x 1 OpenMP threads

MPI task timing breakdown:
Section |  min time  |  avg time  |  max time  |%varavg| %total
---------------------------------------------------------------
Pair    | 8.4678     | 8.4678     | 8.4678     |   0.0 | 45.61
Neigh   | 7.7647     | 7.7647     | 7.7647     |   0.0 | 41.82
Comm    | 0.65363    | 0.65363    | 0.65363    |   0.0 |  3.52
Output  | 0.0074001  | 0.0074001  | 0.0074001  |   0.0 |  0.04
Modify  | 1.2771     | 1.2771     | 1.2771     |   0.0 |  6.88
Other   |            | 0.3967     |            |       |  2.14

Nlocal:           2048 ave        2048 max        2048 min
Histogram: 1 0 0 0 0 0 0 0 0 0
Nghost:           1387 ave        1387 max        1387 min
Histogram: 1 0 0 0 0 0 0 0 0 0
Neighs:          12531 ave       12531 max       12531 min
Histogram: 1 0 0 0 0 0 0 0 0 0

Total # of neighbors = 12531
Ave neighs/atom = 6.1186523
Neighbor list builds = 10566
Dangerous builds = 0

unfix 1
dump           1 all atom ${run_steps} 3dWCA_T${final_temperature}_d${density}_N${run_steps}.lammpstrj   # 修改4：将文件名前缀改为3d
dump           1 all atom 100000 3dWCA_T${final_temperature}_d${density}_N${run_steps}.lammpstrj   
dump           1 all atom 100000 3dWCA_T0.1_d${density}_N${run_steps}.lammpstrj   
dump           1 all atom 100000 3dWCA_T0.1_d1.4_N${run_steps}.lammpstrj   
dump           1 all atom 100000 3dWCA_T0.1_d1.4_N100000.lammpstrj   
dump           2 all dcd ${thermo_time} 3dWCA_T${final_temperature}_d${density}_N${run_steps}.dcd        # 修改4：将文件名前缀改为3d
dump           2 all dcd 250 3dWCA_T${final_temperature}_d${density}_N${run_steps}.dcd        
dump           2 all dcd 250 3dWCA_T0.1_d${density}_N${run_steps}.dcd        
dump           2 all dcd 250 3dWCA_T0.1_d1.4_N${run_steps}.dcd        
dump           2 all dcd 250 3dWCA_T0.1_d1.4_N100000.dcd        
fix 1 all nvt temp ${initial_temperature} ${final_temperature} ${tau}
fix 1 all nvt temp 3 ${final_temperature} ${tau}
fix 1 all nvt temp 3 0.1 ${tau}
fix 1 all nvt temp 3 0.1 0.5

run ${run_steps}
run 100000
Generated 0 of 0 mixed pair_coeff terms from geometric mixing rule
Per MPI rank memory allocation (min/avg/max) = 3.296 | 3.296 | 3.296 Mbytes
   Step          Temp          E_pair         E_mol          TotEng         Press     
     50000   3.0236723      3.6624638      0              8.1957576      71.033946    
     50250   2.9054476      3.5643168      0              7.9203603      69.744582    
     50500   3.0357193      3.6106993      0              8.1620548      70.316959    
     50750   2.98818        3.5492306      0              8.0293119      69.433631    
     51000   2.9470132      3.6419416      0              8.0603029      70.376367    
     51250   2.9719293      3.628297       0              8.0840143      70.255212    
     51500   2.901975       3.6441384      0              7.9949755      70.613835    
     51750   2.968018       3.6638405      0              8.1136937      70.812809    
     52000   2.8927854      3.568284       0              7.9053433      69.59951     
     52250   2.9974791      3.6083801      0              8.1024033      70.019979    
     52500   2.8785355      3.6829866      0              7.9986816      71.260968    
     52750   2.8776056      3.5834419      0              7.8977426      69.734941    
     53000   2.923291       3.5748931      0              7.9576886      69.771602    
     53250   2.8764915      3.5355488      0              7.8481792      69.327017    
     53500   2.9759193      3.4605694      0              7.9222688      68.298965    
     53750   2.8727884      3.5891041      0              7.8961826      69.462462    
     54000   2.8932847      3.4516478      0              7.7894558      68.201841    
     54250   2.8861597      3.6640805      0              7.9912061      70.859109    
     54500   2.8362629      3.5172927      0              7.7696098      69.117722    
     54750   2.868507       3.5256505      0              7.82631        69.23347     
     55000   2.9077958      3.3953714      0              7.7549354      68.099528    
     55250   2.7884741      3.5365834      0              7.7172522      69.138669    
     55500   2.8715074      3.5361351      0              7.8412931      69.328676    
     55750   2.8202518      3.3592707      0              7.5875827      66.996775    
     56000   2.878058       3.507969       0              7.8229481      68.749072    
     56250   2.7714367      3.4149505      0              7.5700757      67.863983    
     56500   2.8055763      3.5087027      0              7.7150123      68.857671    
     56750   2.7440793      3.4085654      0              7.5226746      67.8599      
     57000   2.8484781      3.3703943      0              7.6410252      67.345046    
     57250   2.8313434      3.386366       0              7.6313073      67.402543    
     57500   2.7353683      3.3612906      0              7.4623396      66.924846    
     57750   2.836457       3.359099       0              7.611707       66.766362    
     58000   2.7664368      3.3175919      0              7.4652209      66.575809    
     58250   2.7343829      3.4027258      0              7.5022973      67.398872    
     58500   2.7448138      3.4357585      0              7.5509689      68.115297    
     58750   2.6641019      3.3812068      0              7.3754083      67.063502    
     59000   2.7058262      3.5089344      0              7.5656918      68.976578    
     59250   2.7255581      3.3386446      0              7.4249854      66.711488    
     59500   2.7191905      3.2808428      0              7.3576369      66.248555    
     59750   2.7742321      3.2972512      0              7.4565675      66.168886    
     60000   2.6824642      3.2840396      0              7.3057712      66.06104     
     60250   2.6983864      3.3255756      0              7.3711788      66.861208    
     60500   2.699673       3.254241       0              7.3017733      65.545207    
     60750   2.6735979      3.3018738      0              7.3103124      66.297475    
     61000   2.7291268      3.2069447      0              7.298636       65.332884    
     61250   2.6633991      3.2249469      0              7.2180947      65.273491    
     61500   2.7029437      3.2849208      0              7.3373566      65.796095    
     61750   2.6022817      3.2392043      0              7.1407209      65.079091    
     62000   2.681347       3.2585604      0              7.278617       65.687057    
     62250   2.6214232      3.2670097      0              7.1972246      65.384646    
     62500   2.5766298      3.2066767      0              7.0697342      65.070638    
     62750   2.6482146      3.2357332      0              7.2061154      65.157246    
     63000   2.5812144      3.2592692      0              7.1292003      65.536589    
     63250   2.6195974      3.155024       0              7.0825014      64.417206    
     63500   2.6221259      3.2178299      0              7.1490983      64.996995    
     63750   2.5565988      3.1238751      0              6.9569008      64.030643    
     64000   2.6226892      3.2570861      0              7.189199       65.382818    
     64250   2.5376868      3.2114362      0              7.0161078      64.726973    
     64500   2.5676626      3.2199052      0              7.0695185      65.111665    
     64750   2.5983652      3.1827495      0              7.0783942      64.636089    
     65000   2.5358942      3.1265838      0              6.9285677      63.935877    
     65250   2.6240747      3.1925414      0              7.1267315      64.610595    
     65500   2.544065       3.0745365      0              6.8887706      63.146168    
     65750   2.547936       3.1872588      0              7.0072966      64.596759    
     66000   2.5800785      3.0773195      0              6.9455475      63.08696     
     66250   2.4787863      3.1437578      0              6.8601218      64.066292    
     66500   2.563356       3.1833953      0              7.0265518      64.635147    
     66750   2.4955403      3.047506       0              6.7889886      62.358499    
     67000   2.576844       3.1166098      0              6.9799884      63.906078    
     67250   2.4729795      3.0049961      0              6.7126542      62.679451    
     67500   2.5806987      3.0528105      0              6.9219684      62.892011    
     67750   2.4103868      3.047858       0              6.6616728      62.649541    
     68000   2.5420181      3.0429934      0              6.8541588      62.673038    
     68250   2.4367777      2.9543034      0              6.6076851      61.249595    
     68500   2.4971331      3.0542333      0              6.7981039      62.910812    
     68750   2.4140592      2.9203375      0              6.5396582      61.196918    
     69000   2.4341289      3.0877179      0              6.7371284      63.171721    
     69250   2.3476533      3.0246791      0              6.5444396      62.267752    
     69500   2.3784842      2.9602706      0              6.5262548      61.802476    
     69750   2.4691258      2.9846109      0              6.6864911      61.996589    
     70000   2.397628       2.8616089      0              6.4562949      60.042184    
     70250   2.3967345      3.0047236      0              6.5980699      62.058429    
     70500   2.3396229      2.9404185      0              6.4481393      61.316234    
     70750   2.3898568      2.9075149      0              6.4905498      60.875872    
     71000   2.3748102      2.9786654      0              6.5391414      61.986908    
     71250   2.3627955      2.7979315      0              6.3403941      59.384454    
     71500   2.4154034      2.9317318      0              6.5530678      61.250008    
     71750   2.331991       2.8781864      0              6.3744649      60.192       
     72000   2.3615335      3.0264227      0              6.5669934      62.451981    
     72250   2.3526313      2.8332729      0              6.3604968      59.796359    
     72500   2.3925568      2.8571174      0              6.4442002      60.250222    
     72750   2.3663622      2.9715789      0              6.5193891      61.509207    
     73000   2.328503       2.818842       0              6.3098911      59.955636    
     73250   2.3614978      2.8440721      0              6.3845892      59.894201    
     73500   2.3261845      2.8457862      0              6.3333592      60.205035    
     73750   2.3012949      2.8489867      0              6.2992436      60.012408    
     74000   2.2973992      2.9215262      0              6.3659424      61.137952    
     74250   2.2073949      2.8574783      0              6.1669539      59.965249    
     74500   2.3625313      2.8532663      0              6.395333       60.346446    
     74750   2.2612726      2.8204529      0              6.2107056      59.85825     
     75000   2.2907974      2.7747765      0              6.2092948      59.176455    
     75250   2.2963346      2.7928267      0              6.2356468      59.400006    
     75500   2.2642508      2.750631       0              6.1453488      58.825109    
     75750   2.3331237      2.79872        0              6.2966967      59.600127    
     76000   2.2308663      2.7269765      0              6.071642       58.32397     
     76250   2.2986713      2.7653504      0              6.2116738      58.78175     
     76500   2.2108251      2.7673544      0              6.0819728      58.92667     
     76750   2.2713401      2.6552699      0              6.0606164      57.379494    
     77000   2.2657037      2.7524503      0              6.1493463      58.492196    
     77250   2.1837659      2.6932779      0              5.9673274      57.859379    
     77500   2.2622692      2.7830019      0              6.1747487      59.223196    
     77750   2.1997713      2.6151963      0              5.9132422      56.608136    
     78000   2.1765217      2.7950688      0              6.0582572      59.227063    
     78250   2.1878121      2.5764707      0              5.8565864      56.59988     
     78500   2.2120839      2.6810622      0              5.9975679      57.81034     
     78750   2.1104796      2.6324723      0              5.7966459      56.922185    
     79000   2.2250287      2.6182262      0              5.9541395      56.788589    
     79250   2.111373       2.5708035      0              5.7363166      56.431142    
     79500   2.181582       2.6217799      0              5.8925551      57.069012    
     79750   2.0788413      2.6143353      0              5.7310747      56.682991    
     80000   2.1004552      2.6709452      0              5.8200895      57.655807    
     80250   2.1128237      2.627776       0              5.7954641      56.79386     
     80500   2.0615083      2.5445943      0              5.6353468      55.805851    
     80750   2.1552014      2.5797712      0              5.8109947      56.180798    
     81000   2.0300256      2.5582068      0              5.6017584      56.090968    
     81250   2.0784297      2.6133488      0              5.729471       56.526971    
     81500   2.0785602      2.5321912      0              5.6485091      55.964676    
     81750   2.0709966      2.5142877      0              5.6192657      55.542878    
     82000   2.0643849      2.5868215      0              5.6818868      56.29526     
     82250   2.0126041      2.4728066      0              5.4902386      54.718826    
     82500   2.0710981      2.5355269      0              5.6406571      55.764181    
     82750   2.0124926      2.5070533      0              5.5243182      55.577743    
     83000   2.0609039      2.4924192      0              5.5822656      55.016914    
     83250   2.0079072      2.5536396      0              5.5640297      55.711804    
     83500   2.0087857      2.4971461      0              5.5088534      55.077297    
     83750   2.0476211      2.4698586      0              5.5397906      54.75818     
     84000   1.9451121      2.4698834      0              5.386127       54.611565    
     84250   1.9953839      2.5535241      0              5.5451384      55.668035    
     84500   1.9801034      2.4618045      0              5.4305093      54.802929    
     84750   2.0416175      2.378753       0              5.439684       53.496837    
     85000   1.9679323      2.4203265      0              5.3707837      53.862803    
     85250   2.0118894      2.3814166      0              5.3977771      53.454518    
     85500   1.9232883      2.5216582      0              5.4051821      55.212264    
     85750   1.932471       2.4455379      0              5.3428291      54.247529    
     86000   1.9966011      2.3578977      0              5.351337       53.182999    
     86250   1.874681       2.3921678      0              5.2028163      53.508457    
     86500   1.932605       2.4687842      0              5.3662762      54.582371    
     86750   1.9354874      2.335047       0              5.2368605      52.578695    
     87000   1.9767248      2.4540234      0              5.4176628      54.615008    
     87250   1.9383544      2.3047022      0              5.2108141      52.063744    
     87500   1.9619926      2.337058       0              5.2786098      52.659138    
     87750   1.8911634      2.3723725      0              5.2077325      53.259196    
     88000   1.8854411      2.3620089      0              5.1887897      53.01581     
     88250   1.9173647      2.3319328      0              5.2065755      52.658165    
     88500   1.8260496      2.33933        0              5.0770669      52.703774    
     88750   1.9382618      2.3223931      0              5.2283662      52.661141    
     89000   1.9079915      2.2096975      0              5.0702873      51.06069     
     89250   1.9024729      2.3240945      0              5.1764104      52.489094    
     89500   1.841901       2.2994554      0              5.0609579      51.987736    
     89750   1.8768268      2.2369689      0              5.0508345      51.162498    
     90000   1.8794908      2.320195       0              5.1380545      52.36268     
     90250   1.8209544      2.2429419      0              4.9730398      51.472026    
     90500   1.9066363      2.2801299      0              5.1386878      52.001304    
     90750   1.8049188      2.2402006      0              4.9462568      51.382072    
     91000   1.8573831      2.1816369      0              4.9663512      50.545779    
     91250   1.836013       2.2214184      0              4.9740931      51.210291    
     91500   1.7643129      2.2372164      0              4.8823935      50.91311     
     91750   1.8685707      2.2760605      0              5.0775481      51.653704    
     92000   1.7560288      2.1994697      0              4.8322268      50.697543    
     92250   1.7915351      2.2052752      0              4.8912658      50.805321    
     92500   1.7581975      2.1854562      0              4.8214648      50.443779    
     92750   1.7459445      2.2007188      0              4.8183567      50.831956    
     93000   1.804413       2.16812        0              4.873418       50.479425    
     93250   1.7280309      2.1428167      0              4.7335974      49.959702    
     93500   1.7996914      2.1656382      0              4.8638571      50.322096    
     93750   1.6866516      2.1563434      0              4.6850855      49.819909    
     94000   1.7731315      2.1574906      0              4.8158893      49.94964     
     94250   1.6781848      2.1185412      0              4.6345893      49.287362    
     94500   1.7269712      2.1814017      0              4.7705937      50.275511    
     94750   1.6728524      2.0787549      0              4.5868082      48.936987    
     95000   1.7286446      2.1253179      0              4.7170187      49.692652    
     95250   1.6846895      2.0125101      0              4.5383105      47.987822    
     95500   1.7265728      2.0755386      0              4.6641332      48.952374    
     95750   1.6374239      2.03246        0              4.4873966      48.100863    
     96000   1.6942111      2.0768801      0              4.6169559      49.082458    
     96250   1.661392       1.9445243      0              4.4353954      46.639994    
     96500   1.6805985      2.0487075      0              4.5683743      48.556478    
     96750   1.6380667      1.9423332      0              4.3982335      47.12515     
     97000   1.6443716      2.046892       0              4.512245       48.625178    
     97250   1.6033606      1.9531005      0              4.356967       46.872348    
     97500   1.6591129      1.9582422      0              4.4456965      47.524632    
     97750   1.6291292      1.9544622      0              4.3969628      47.045499    
     98000   1.5630824      2.023435       0              4.3669138      48.034739    
     98250   1.6272821      1.9706924      0              4.4104236      47.206156    
     98500   1.5630703      1.952461       0              4.2959217      46.954893    
     98750   1.6010268      1.9785638      0              4.3789314      47.35506     
     99000   1.538031       1.9286649      0              4.2345849      46.382408    
     99250   1.5306389      1.9459747      0              4.240812       46.81703     
     99500   1.5617034      1.9896464      0              4.3310578      47.539267    
     99750   1.5032328      1.9331422      0              4.1868904      46.420231    
    100000   1.5741506      1.9013256      0              4.2613986      46.219786    
    100250   1.5430734      1.8800618      0              4.1935417      46.066651    
    100500   1.5256297      1.8472074      0              4.1345346      45.381103    
    100750   1.5153401      1.9393868      0              4.2112871      46.639398    
    101000   1.4831585      1.8427644      0              4.0664159      45.394519    
    101250   1.5070126      1.9200821      0              4.1794973      46.359151    
    101500   1.4915082      1.8548911      0              4.091061       45.581093    
    101750   1.510083       1.7729317      0              4.0369502      44.346162    
    102000   1.5159658      1.8738826      0              4.146721       45.785971    
    102250   1.4986102      1.7809441      0              4.0277619      44.172352    
    102500   1.4677916      1.8790045      0              4.0796169      45.951419    
    102750   1.4476359      1.7888273      0              3.9592209      44.319332    
    103000   1.5046227      1.8268254      0              4.0826575      45.138776    
    103250   1.4378281      1.8498446      0              4.0055336      45.053496    
    103500   1.4236542      1.797704       0              3.9321426      44.634084    
    103750   1.441327       1.7329098      0              3.8938445      43.636109    
    104000   1.4579843      1.788375       0              3.9742835      44.334603    
    104250   1.426465       1.7483607      0              3.8870134      43.920265    
    104500   1.4634719      1.7218357      0              3.9159717      43.575716    
    104750   1.4005528      1.7029302      0              3.8027336      43.017343    
    105000   1.4493824      1.7574466      0              3.9304587      43.750342    
    105250   1.3894113      1.7506132      0              3.8337126      43.730994    
    105500   1.3575026      1.7379895      0              3.7732491      43.519723    
    105750   1.3759047      1.7102972      0              3.7731465      43.256016    
    106000   1.391059       1.7119694      0              3.797539       43.055328    
    106250   1.362733       1.6983075      0              3.741409       42.861961    
    106500   1.3677532      1.7013453      0              3.7519733      42.975935    
    106750   1.3585212      1.6138231      0              3.6506098      41.466369    
    107000   1.3779934      1.6931139      0              3.7590948      42.950537    
    107250   1.3536815      1.6273441      0              3.6568748      41.804271    
    107500   1.3684472      1.6274238      0              3.6790923      42.062437    
    107750   1.3446677      1.6172916      0              3.6333084      42.007698    
    108000   1.3291587      1.6146991      0              3.6074636      41.582447    
    108250   1.3253865      1.7112838      0              3.6983929      42.992928    
    108500   1.2912948      1.6275964      0              3.5635929      41.728014    
    108750   1.2745053      1.6290601      0              3.5398846      41.755548    
    109000   1.2997136      1.6357697      0              3.5843882      41.672533    
    109250   1.2667251      1.6089664      0              3.5081263      41.599205    
    109500   1.2324994      1.6427629      0              3.4906092      42.1061      
    109750   1.2502851      1.5597846      0              3.4342966      40.521183    
    110000   1.2965209      1.5692759      0              3.5131077      40.886799    
    110250   1.2407657      1.5743543      0              3.434594       41.053862    
    110500   1.2485359      1.487922       0              3.3598114      39.754202    
    110750   1.2541795      1.5407341      0              3.4210848      40.287577    
    111000   1.2455213      1.5107304      0              3.3781001      39.953903    
    111250   1.2668622      1.4512676      0              3.3506329      38.87962     
    111500   1.2181788      1.5007704      0              3.3271463      39.836098    
    111750   1.2141815      1.4665658      0              3.2869487      39.282708    
    112000   1.2215362      1.491774       0              3.3231836      39.364772    
    112250   1.1884831      1.4857809      0              3.2676351      39.32563     
    112500   1.2059369      1.454416       0              3.2624382      38.867255    
    112750   1.1583752      1.4218223      0              3.1585367      38.474772    
    113000   1.2085905      1.4410753      0              3.2530759      38.712348    
    113250   1.1584065      1.43224        0              3.1690013      38.675604    
    113500   1.1487833      1.4360049      0              3.1583384      38.844141    
    113750   1.1753879      1.4339745      0              3.1961954      38.555456    
    114000   1.1287         1.415111       0              3.1073343      38.272929    
    114250   1.1610867      1.4330339      0              3.1738135      38.681438    
    114500   1.1247771      1.4207378      0              3.1070796      38.392441    
    114750   1.1402647      1.3526375      0              3.0621994      37.247437    
    115000   1.1358235      1.4359661      0              3.1388694      38.650926    
    115250   1.1146066      1.3541815      0              3.025275       37.158118    
    115500   1.0777768      1.4326901      0              3.0485659      38.627883    
    115750   1.0803016      1.3354097      0              2.9550708      36.742427    
    116000   1.1143366      1.3880509      0              3.0587397      37.919602    
    116250   1.0757276      1.3610502      0              2.9738537      37.380726    
    116500   1.0699751      1.3143263      0              2.9185052      36.47899     
    116750   1.0532671      1.3224987      0              2.9016279      36.705034    
    117000   1.0747965      1.3355829      0              2.9469905      37.052337    
    117250   1.0261462      1.3225001      0              2.8609678      36.622194    
    117500   1.0793776      1.3240157      0              2.9422916      37.012309    
    117750   1.0325235      1.2746532      0              2.8226822      36.024934    
    118000   1.0214053      1.3076078      0              2.8389676      36.20969     
    118250   1.0107455      1.2982269      0              2.8136049      36.144047    
    118500   1.0212108      1.2454086      0              2.7764769      35.407941    
    118750   1.0314751      1.2845002      0              2.8309575      36.107178    
    119000   1.0032506      1.2199611      0              2.7241023      34.925685    
    119250   0.99046051     1.2846987      0              2.7696641      35.945708    
    119500   0.97272739     1.2307218      0              2.6891005      35.334563    
    119750   0.95880896     1.2545896      0              2.6921008      35.565068    
    120000   0.97968447     1.2358191      0              2.7046283      35.338556    
    120250   0.94836585     1.2095668      0              2.631421       34.653335    
    120500   1.0014308      1.151225       0              2.6526378      33.633759    
    120750   0.93801716     1.1624718      0              2.5688105      33.804047    
    121000   0.95698228     1.2229665      0              2.657739       35.050988    
    121250   0.95269938     1.1663136      0              2.5946649      33.728749    
    121500   0.93105454     1.1260847      0              2.5219846      33.221613    
    121750   0.9422437      1.169625       0              2.5823005      34.078813    
    122000   0.91411868     1.1238558      0              2.4943643      33.298748    
    122250   0.88893232     1.1576345      0              2.4903819      33.77679     
    122500   0.89790176     1.0926763      0              2.4388713      32.587777    
    122750   0.90680599     1.1145758      0              2.4741206      32.896263    
    123000   0.90602041     1.0756306      0              2.4339976      32.402532    
    123250   0.8867938      1.0696488      0              2.39919        32.26051     
    123500   0.84058559     1.0681759      0              2.3284386      32.199661    
    123750   0.87514188     1.0987075      0              2.4107793      32.884915    
    124000   0.84926494     1.0647388      0              2.3380142      32.169821    
    124250   0.84611407     1.0605644      0              2.3291157      32.082215    
    124500   0.82993103     1.0196657      0              2.2639544      31.462419    
    124750   0.84313484     1.0528066      0              2.3168913      31.960838    
    125000   0.8330084      1.0165458      0              2.2654483      31.346216    
    125250   0.81337948     1.0224955      0              2.241969       31.245887    
    125500   0.79855034     0.99686889     0              2.1941095      30.664037    
    125750   0.80938499     1.0165479      0              2.2300326      31.229203    
    126000   0.78313893     1.0011915      0              2.1753263      30.946226    
    126250   0.77740299     1.0115911      0              2.1771262      31.046096    
    126500   0.7768804      0.94896081     0              2.1137124      30.053702    
    126750   0.78114285     1.0061941      0              2.1773363      30.837385    
    127000   0.76724908     0.95171776     0              2.1020294      30.083454    
    127250   0.74357756     0.96677031     0              2.081592       30.22037     
    127500   0.76658772     0.95801209     0              2.1073322      30.015796    
    127750   0.73620856     0.93749702     0              2.0412706      29.670323    
    128000   0.71876219     0.92079357     0              1.9984104      29.245629    
    128250   0.73356765     0.92815356     0              2.0279678      29.44458     
    128500   0.73518986     0.90049845     0              2.0027448      28.882171    
    128750   0.7082241      0.89951699     0              1.9613344      28.918777    
    129000   0.68185461     0.86494667     0              1.8872292      28.046474    
    129250   0.69519611     0.91373834     0              1.9560233      29.159926    
    129500   0.68673673     0.86357772     0              1.8931798      28.26848     
    129750   0.69391225     0.85453464     0              1.8948948      28.119875    
    130000   0.66745513     0.82605102     0              1.8267449      27.595901    
    130250   0.67526483     0.86960915     0              1.8820118      28.410275    
    130500   0.66318889     0.82362735     0              1.817925       27.507387    
    130750   0.66939544     0.81198923     0              1.8155921      27.131249    
    131000   0.64802674     0.78985535     0              1.7614208      26.820898    
    131250   0.65793555     0.83791801     0              1.8243395      27.643146    
    131500   0.62959702     0.80622363     0              1.750158       27.095841    
    131750   0.62844395     0.77591201     0              1.7181176      26.378816    
    132000   0.60915666     0.77247627     0              1.6857651      26.345358    
    132250   0.63315362     0.78188618     0              1.7311529      26.61025     
    132500   0.61052967     0.74651229     0              1.6618596      25.866423    
    132750   0.60246131     0.74030118     0              1.6435519      25.650601    
    133000   0.58662937     0.73015311     0              1.6096675      25.441409    
    133250   0.59962051     0.74385953     0              1.6428511      25.847816    
    133500   0.59091854     0.70247363     0              1.5884186      24.751658    
    133750   0.5568666      0.70729377     0              1.5421858      25.081036    
    134000   0.56402764     0.7028231      0              1.5484515      24.984797    
    134250   0.54964849     0.71130184     0              1.535372       25.210083    
    134500   0.54344783     0.69282051     0              1.5075942      24.722846    
    134750   0.55586326     0.66331156     0              1.4966993      24.053423    
    135000   0.5320466      0.67559887     0              1.4732791      24.286971    
    135250   0.532416       0.65680411     0              1.4550382      23.849369    
    135500   0.51023358     0.65695422     0              1.4219309      23.943791    
    135750   0.49105434     0.61947691     0              1.3556988      23.098334    
    136000   0.50424603     0.64448283     0              1.4004825      23.477273    
    136250   0.50138433     0.61271835     0              1.3644276      23.105857    
    136500   0.49095764     0.61607531     0              1.3521522      22.914811    
    136750   0.47873376     0.58525331     0              1.3030033      22.262754    
    137000   0.48815696     0.60799582     0              1.3398737      22.540539    
    137250   0.46049717     0.59060744     0              1.2810159      22.465644    
    137500   0.459822       0.58241306     0              1.2718093      22.230722    
    137750   0.44369466     0.56945893     0              1.2346759      21.868993    
    138000   0.46593078     0.57283686     0              1.2713918      21.919522    
    138250   0.44920382     0.53922172     0              1.2126984      21.40154     
    138500   0.42410327     0.54568283     0              1.1815271      21.347345    
    138750   0.41683393     0.51767156     0              1.1426172      20.756189    
    139000   0.42761675     0.53771548     0              1.1788274      21.180283    
    139250   0.40840766     0.52695028     0              1.1392626      20.923124    
    139500   0.3923096      0.5161345      0              1.1043116      20.547507    
    139750   0.39014029     0.47531894     0              1.0602436      19.778539    
    140000   0.39445713     0.49494435     0              1.0863411      20.26258     
    140250   0.39635822     0.46441864     0              1.0586657      19.485949    
    140500   0.37949659     0.45750028     0              1.0264672      19.230717    
    140750   0.35615895     0.44794847     0              0.98192604     19.071158    
    141000   0.37178282     0.4430667      0              1.0004686      18.968421    
    141250   0.35483414     0.43171164     0              0.96370297     18.55669     
    141500   0.35015377     0.42468181     0              0.94965601     18.410559    
    141750   0.33727959     0.41768491     0              0.92335725     18.1508      
    142000   0.33735065     0.40313617     0              0.90891506     17.880823    
    142250   0.32531113     0.39502583     0              0.88275426     17.722022    
    142500   0.31831212     0.37593634     0              0.85317138     17.207108    
    142750   0.32385331     0.38465548     0              0.87019824     17.390387    
    143000   0.30985099     0.37786489     0              0.84241443     17.084209    
    143250   0.29738509     0.35954076     0              0.80540058     16.758017    
    143500   0.28481502     0.35404415     0              0.78105808     16.541496    
    143750   0.28073753     0.34249093     0              0.76339161     16.222833    
    144000   0.27932669     0.33473804     0              0.7535235      16.023812    
    144250   0.26235432     0.34065665     0              0.73399599     16.183735    
    144500   0.25288895     0.32986266     0              0.70901086     15.80167     
    144750   0.25421857     0.31193541     0              0.69307707     15.380474    
    145000   0.24248956     0.31100261     0              0.67455934     15.353533    
    145250   0.2437445      0.28714943     0              0.65258766     14.811265    
    145500   0.23569308     0.27983067     0              0.63319766     14.355254    
    145750   0.22086972     0.28235768     0              0.61350049     14.4161      
    146000   0.21584947     0.26956956     0              0.59318567     14.082965    
    146250   0.20818042     0.26089988     0              0.57301803     13.882991    
    146500   0.20578758     0.24471892     0              0.55324956     13.38205     
    146750   0.19507461     0.24099739     0              0.53346644     13.162181    
    147000   0.18520753     0.23537736     0              0.51305301     13.034726    
    147250   0.17971302     0.22346275     0              0.49290066     12.59331     
    147500   0.17321614     0.21333032     0              0.47302766     12.25463     
    147750   0.17120647     0.19637721     0              0.45306151     11.778385    
    148000   0.15915145     0.19414417     0              0.43275478     11.633363    
    148250   0.15628252     0.1786568      0              0.41296612     11.058371    
    148500   0.14742498     0.17195606     0              0.39298555     10.867678    
    148750   0.14057581     0.16241511     0              0.37317585     10.618239    
    149000   0.13097172     0.15662252     0              0.35298418     10.249511    
    149250   0.12314721     0.14856988     0              0.3332005      9.9504961    
    149500   0.11924233     0.1344676      0              0.31324376     9.4106028    
    149750   0.10828099     0.13098619     0              0.29332837     9.293737     
    150000   0.10295004     0.11910172     0              0.27345137     8.730804     
Loop time of 30.9553 on 1 procs for 100000 steps with 2048 atoms

Performance: 1395561.719 tau/day, 3230.467 timesteps/s, 6.616 Matom-step/s
97.9% CPU use with 1 MPI tasks x 1 OpenMP threads

MPI task timing breakdown:
Section |  min time  |  avg time  |  max time  |%varavg| %total
---------------------------------------------------------------
Pair    | 16.574     | 16.574     | 16.574     |   0.0 | 53.54
Neigh   | 9.5167     | 9.5167     | 9.5167     |   0.0 | 30.74
Comm    | 1.0257     | 1.0257     | 1.0257     |   0.0 |  3.31
Output  | 0.58479    | 0.58479    | 0.58479    |   0.0 |  1.89
Modify  | 2.5531     | 2.5531     | 2.5531     |   0.0 |  8.25
Other   |            | 0.701      |            |       |  2.26

Nlocal:           2048 ave        2048 max        2048 min
Histogram: 1 0 0 0 0 0 0 0 0 0
Nghost:           1381 ave        1381 max        1381 min
Histogram: 1 0 0 0 0 0 0 0 0 0
Neighs:          12288 ave       12288 max       12288 min
Histogram: 1 0 0 0 0 0 0 0 0 0

Total # of neighbors = 12288
Ave neighs/atom = 6
Neighbor list builds = 13786
Dangerous builds = 0
Total wall time: 0:00:49
