ITEM: TIMESTEP
100000
ITEM: NUMBER OF ATOMS
2048
ITEM: BOX BOUNDS pp pp pp
0.0000000000000000e+00 1.1351867295763070e+01
0.0000000000000000e+00 1.1351867295763070e+01
0.0000000000000000e+00 1.1351867295763070e+01
ITEM: ATOMS id type xs ys zs
7 1 0.19551 -0.00259135 0.0632918
13 1 0.367286 0.00438884 0.996299
15 1 0.434099 0.00230235 0.0629534
4 1 1.00071 0.0646993 0.060786
16 1 0.377695 0.063169 0.0562487
20 1 0.49581 0.0667045 0.0631877
24 1 0.624099 0.0670313 0.0622301
22 1 0.684211 0.0711972 1.00071
37 1 0.12815 0.123258 1.00295
43 1 0.315379 0.124809 0.0584186
45 1 0.378704 0.127356 -0.00252392
57 1 0.745801 0.128698 0.995737
38 1 0.18767 0.189295 0.997296
42 1 0.316358 0.190548 0.991417
46 1 0.433866 0.189327 0.993854
60 1 0.745317 0.197992 0.0648184
62 1 0.938667 0.187248 0.994677
67 1 0.0710128 0.252711 0.0585471
69 1 0.125016 0.252818 0.992838
73 1 0.251528 0.247431 0.99543
77 1 0.374665 0.254095 0.992823
81 1 0.499853 0.248538 0.997406
66 1 0.0630629 0.313227 0.00411925
72 1 0.130571 0.31512 0.0637388
78 1 0.443067 0.316672 0.996971
82 1 0.56023 0.310206 0.998161
92 1 0.747091 0.314192 0.0643209
99 1 0.0708325 0.374221 0.0668143
105 1 0.245445 0.374777 0.993136
109 1 0.37933 0.370024 0.997793
113 1 0.504425 0.37442 0.99528
117 1 0.62594 0.384252 0.00161108
121 1 0.749152 0.380504 0.00397384
125 1 0.875651 0.376773 0.00641438
97 1 0.00317226 0.370498 0.00785002
104 1 0.129244 0.438672 0.0611597
108 1 0.253787 0.436068 0.0595452
106 1 0.310378 0.430891 0.998153
110 1 0.434494 0.437175 0.00127043
114 1 0.558138 0.442947 -0.00152946
118 1 0.688317 0.440879 -0.00040857
122 1 0.812798 0.434664 0.00252469
126 1 0.943014 0.429995 0.00808737
133 1 0.122627 0.500708 0.00425195
149 1 0.623993 0.506738 0.000346427
153 1 0.747983 0.500243 0.00287322
130 1 0.0663211 0.559258 0.00253521
134 1 0.180266 0.564772 0.00178285
138 1 0.311121 0.560838 0.991069
150 1 0.691042 0.564987 0.00191927
161 1 -0.00171455 0.624662 -0.00143959
169 1 0.245727 0.617846 0.995408
171 1 0.315639 0.621952 0.0622353
177 1 0.496722 0.622258 0.99647
183 1 0.690415 0.62442 0.0666854
164 1 1.00105 0.688089 0.0664409
162 1 0.0584554 0.690207 0.00634763
174 1 0.437169 0.688574 0.997531
184 1 0.624463 0.690903 0.0653837
186 1 0.810059 0.690538 0.00561921
197 1 0.119113 0.74996 0.00272439
199 1 0.190211 0.747885 0.0654559
203 1 0.314574 0.752383 0.0606025
209 1 0.497228 0.7448 0.00258489
213 1 0.626296 0.743857 0.997449
217 1 0.7497 0.752687 0.998256
221 1 0.87218 0.747799 0.00317511
193 1 -0.00150102 0.750853 0.00799825
194 1 0.0609581 0.811309 0.00403598
198 1 0.190382 0.81049 0.0018784
202 1 0.309012 0.807152 0.996197
208 1 0.374888 0.814821 0.0607576
210 1 0.561283 0.804652 0.991788
214 1 0.683677 0.811953 0.994971
218 1 0.81228 0.808111 0.00181253
222 1 0.941275 0.817722 0.00286119
233 1 0.253132 0.87906 0.00289722
235 1 0.317723 0.875743 0.0610167
241 1 0.497138 0.872314 0.992653
245 1 0.622569 0.870076 0.994751
249 1 0.750911 0.87196 0.998858
253 1 0.873964 0.877792 1.00171
234 1 0.307806 0.942917 0.00351291
240 1 0.379501 0.938908 0.0590158
244 1 0.496317 0.934766 0.060243
243 1 0.560808 0.878698 0.0604126
252 1 0.754832 0.935304 0.0579159
254 1 0.939315 0.934334 0.00205668
236 1 0.247935 0.931589 0.0659508
21 1 0.621155 0.00540023 0.999781
29 1 0.875626 -0.00139878 0.00377687
11 1 0.308876 -0.000653219 0.0700921
273 1 0.499506 0.00433776 0.127001
19 1 0.56147 0.00391382 0.0604928
23 1 0.687216 0.00240237 0.0584516
31 1 0.93749 0.999839 0.0629668
8 1 0.127411 0.0549527 0.0604946
12 1 0.251125 0.0647881 0.0637927
28 1 0.752687 0.0662527 0.0563669
32 1 0.876364 0.0634894 0.0605745
35 1 0.0660347 0.131568 0.063157
39 1 0.18399 0.121419 0.0626658
47 1 0.440407 0.130346 0.058495
51 1 0.557858 0.127084 0.0633891
55 1 0.685087 0.125602 0.0690665
59 1 0.813848 0.12663 0.0600616
63 1 0.937625 0.122698 0.0660629
36 1 0.999155 0.19312 0.0616081
40 1 0.130006 0.189293 0.0614281
44 1 0.249189 0.184631 0.0642324
48 1 0.373356 0.188488 0.0559647
52 1 0.495461 0.196762 0.0670962
56 1 0.621679 0.193711 0.06561
64 1 0.87656 0.184832 0.0680882
71 1 0.190008 0.254912 0.0591611
75 1 0.311166 0.249752 0.0614205
79 1 0.435697 0.251903 0.0620818
83 1 0.560629 0.254686 0.0636994
87 1 0.686394 0.256117 0.0672544
91 1 0.81246 0.247526 0.0665861
95 1 0.933204 0.251004 0.0637071
76 1 0.252538 0.316937 0.0542699
80 1 0.37416 0.312831 0.059026
84 1 0.500367 0.31603 0.060076
88 1 0.624207 0.312695 0.0608738
96 1 0.875697 0.309238 0.0642959
68 1 0.00214755 0.306815 0.06381
103 1 0.193213 0.374341 0.0598308
107 1 0.323596 0.375989 0.058297
111 1 0.440817 0.37316 0.0596343
115 1 0.562227 0.375501 0.0547019
119 1 0.688546 0.379619 0.062944
123 1 0.807964 0.374329 0.0663961
127 1 0.936934 0.373331 0.0687822
100 1 0.00492274 0.434467 0.0645785
112 1 0.37657 0.44069 0.0639503
116 1 0.496286 0.442531 0.0625371
120 1 0.626951 0.44527 0.062214
124 1 0.753024 0.440693 0.065358
128 1 0.872258 0.433674 0.0664569
131 1 0.0691387 0.497202 0.0657545
135 1 0.187717 0.500297 0.0589976
139 1 0.316769 0.498635 0.0614119
143 1 0.438543 0.507122 0.058584
147 1 0.558744 0.504195 0.0626125
151 1 0.684973 0.503119 0.0619711
155 1 0.816005 0.50497 0.0664231
159 1 0.939555 0.49457 0.0668406
132 1 0.00273911 0.562279 0.0626601
136 1 0.123234 0.561124 0.0659899
140 1 0.248717 0.561221 0.0575265
144 1 0.377834 0.559808 0.0629628
148 1 0.495726 0.565837 0.0589245
152 1 0.628542 0.567151 0.0656258
156 1 0.752506 0.561849 0.0619414
160 1 0.880328 0.55918 0.064382
163 1 0.061671 0.626836 0.0732797
167 1 0.192113 0.629199 0.0619716
175 1 0.429362 0.626088 0.0533991
179 1 0.559161 0.625306 0.0608654
187 1 0.8111 0.623278 0.065849
191 1 0.94112 0.623872 0.0605186
168 1 0.119577 0.692091 0.0652185
172 1 0.25433 0.68527 0.0643538
176 1 0.367812 0.6868 0.0598906
180 1 0.499131 0.682256 0.0582815
188 1 0.749772 0.68795 0.0586423
192 1 0.875356 0.685127 0.0628262
195 1 0.0591374 0.752395 0.0696886
207 1 0.428507 0.746657 0.0584637
211 1 0.561173 0.748953 0.0596166
215 1 0.684496 0.747466 0.0615779
219 1 0.806553 0.75137 0.0636056
223 1 0.933719 0.749658 0.0623945
196 1 -0.00133333 0.822467 0.0663571
200 1 0.130714 0.811921 0.0613865
204 1 0.251081 0.812377 0.0631885
212 1 0.502943 0.811742 0.0634156
216 1 0.619876 0.812565 0.0658544
220 1 0.74191 0.815154 0.0549048
224 1 0.878604 0.815668 0.0618903
227 1 0.0740162 0.878817 0.0582283
231 1 0.190407 0.870694 0.056712
239 1 0.436815 0.871106 0.0619774
247 1 0.686799 0.87514 0.0538683
251 1 0.811398 0.874718 0.0605757
255 1 0.934153 0.88221 0.0661907
232 1 0.128877 0.943379 0.0641875
248 1 0.618845 0.932954 0.0612303
256 1 0.87607 0.940287 0.0608498
228 1 0.00419501 0.930241 0.0627819
3 1 0.0680697 0.00132132 0.0611084
27 1 0.816451 -0.00108614 0.0626026
258 1 0.0614126 0.0618581 0.123142
265 1 0.249135 0.996443 0.127657
277 1 0.617693 0.997788 0.125652
285 1 0.87411 0.00539125 0.124772
262 1 0.188989 0.0586449 0.128519
266 1 0.309248 0.0642919 0.131407
270 1 0.435879 0.0644631 0.122126
274 1 0.554408 0.0661155 0.12309
278 1 0.682715 0.0563818 0.125682
282 1 0.810633 0.0639309 0.114601
286 1 0.935981 0.0594077 0.126013
289 1 0.000402382 0.124195 0.121689
293 1 0.124161 0.125287 0.119368
297 1 0.249043 0.123447 0.127401
301 1 0.37692 0.126799 0.11915
305 1 0.500017 0.12916 0.131557
309 1 0.616166 0.123961 0.123737
313 1 0.756669 0.127988 0.124567
317 1 0.875187 0.121601 0.125472
290 1 0.0667341 0.193543 0.120368
294 1 0.186765 0.186702 0.119789
298 1 0.310796 0.183069 0.125269
302 1 0.437925 0.188196 0.125074
306 1 0.558275 0.190537 0.1248
310 1 0.684101 0.192468 0.124874
314 1 0.816973 0.187211 0.128102
318 1 0.941919 0.186265 0.120513
321 1 0.998277 0.247969 0.125605
325 1 0.127861 0.249313 0.12338
329 1 0.247576 0.251758 0.122558
333 1 0.367636 0.244893 0.12336
337 1 0.495509 0.250938 0.131859
341 1 0.622424 0.254814 0.127424
345 1 0.747499 0.250484 0.132276
349 1 0.873477 0.247184 0.128887
322 1 0.0693446 0.312721 0.124679
326 1 0.195923 0.315313 0.122586
330 1 0.313352 0.316414 0.11927
334 1 0.433371 0.313695 0.129135
338 1 0.560036 0.319107 0.120373
342 1 0.689393 0.313271 0.128993
346 1 0.811657 0.311377 0.135667
350 1 0.934963 0.307988 0.121569
353 1 0.00278114 0.370192 0.125518
357 1 0.135902 0.376501 0.124496
361 1 0.251176 0.376847 0.116642
365 1 0.378559 0.373232 0.125144
369 1 0.498852 0.380414 0.119351
373 1 0.622955 0.375375 0.118421
377 1 0.747478 0.371043 0.127483
381 1 0.870827 0.37205 0.125142
354 1 0.0672993 0.431555 0.129267
358 1 0.184116 0.442236 0.123978
362 1 0.318876 0.435587 0.121079
366 1 0.437291 0.438834 0.123464
370 1 0.564542 0.441209 0.122067
374 1 0.69341 0.437117 0.126845
378 1 0.811787 0.436904 0.122769
382 1 0.929478 0.435535 0.130262
385 1 0.997038 0.489886 0.130788
389 1 0.127098 0.502946 0.130114
393 1 0.254848 0.499662 0.126394
397 1 0.372622 0.503381 0.128804
401 1 0.502753 0.504532 0.125429
405 1 0.622721 0.500996 0.121215
409 1 0.750235 0.503462 0.121808
413 1 0.870423 0.497221 0.132815
386 1 0.0607101 0.555943 0.130037
390 1 0.193533 0.563204 0.121837
394 1 0.314473 0.566073 0.12786
398 1 0.43765 0.564898 0.123617
402 1 0.567724 0.567518 0.125101
406 1 0.687606 0.561788 0.127424
410 1 0.810788 0.563354 0.125953
414 1 0.942318 0.556652 0.125141
421 1 0.129913 0.623846 0.121877
425 1 0.2526 0.626238 0.122885
429 1 0.37944 0.624534 0.124129
433 1 0.498887 0.623029 0.124095
437 1 0.629791 0.624683 0.135622
441 1 0.752141 0.624262 0.12603
445 1 0.880672 0.619215 0.128684
417 1 0.999451 0.620845 0.126518
418 1 0.0659551 0.69083 0.127731
422 1 0.189442 0.689452 0.120983
426 1 0.313824 0.685671 0.123928
430 1 0.431684 0.691657 0.12322
434 1 0.562576 0.686442 0.122985
438 1 0.686505 0.685935 0.125569
442 1 0.811584 0.690261 0.121893
446 1 0.937484 0.688677 0.120847
449 1 0.998085 0.746605 0.128587
453 1 0.125078 0.754869 0.12739
457 1 0.255458 0.749314 0.125648
461 1 0.374047 0.752882 0.125819
465 1 0.500809 0.749066 0.121382
469 1 0.624419 0.752485 0.12266
473 1 0.748326 0.749101 0.124053
477 1 0.876852 0.747902 0.124416
450 1 0.0627793 0.814571 0.125313
454 1 0.191343 0.810176 0.123783
458 1 0.31439 0.812625 0.121424
462 1 0.441469 0.814288 0.123785
466 1 0.562022 0.815514 0.123759
470 1 0.688255 0.810266 0.12347
474 1 0.81691 0.810398 0.124875
478 1 0.935572 0.813843 0.127528
481 1 -0.00189556 0.876527 0.129082
485 1 0.126218 0.868892 0.127356
489 1 0.253111 0.875319 0.126654
493 1 0.375339 0.872473 0.123834
497 1 0.500787 0.877551 0.122886
501 1 0.620734 0.874228 0.130923
505 1 0.750041 0.880871 0.122714
509 1 0.870102 0.87812 0.123167
482 1 0.0647022 0.936858 0.120396
486 1 0.187945 0.934576 0.12829
490 1 0.31693 0.936605 0.121599
494 1 0.431884 0.936113 0.124751
498 1 0.558169 0.9425 0.117016
502 1 0.682045 0.940124 0.119406
506 1 0.808714 0.938498 0.12529
510 1 0.933437 0.93828 0.126764
257 1 1.00123 1.00035 0.125146
261 1 0.128188 1.00089 0.125073
269 1 0.370052 -0.000915602 0.136078
281 1 0.751467 0.99975 0.118224
264 1 0.125598 0.0595462 0.187625
267 1 0.306013 0.997787 0.191087
280 1 0.622648 0.0687361 0.19158
284 1 0.749751 0.0660233 0.184862
287 1 0.935158 0.0027384 0.183376
268 1 0.244551 0.061524 0.187496
272 1 0.379584 0.0669212 0.185703
276 1 0.497983 0.063676 0.192275
288 1 0.875546 0.0671073 0.189283
260 1 1.00009 0.0624875 0.182718
291 1 0.0576543 0.122913 0.185191
295 1 0.184225 0.130898 0.186186
299 1 0.31298 0.12355 0.189943
303 1 0.435875 0.130417 0.186741
307 1 0.559107 0.127468 0.196188
311 1 0.681445 0.126195 0.179914
315 1 0.812115 0.126251 0.188893
319 1 0.936712 0.124869 0.182672
296 1 0.128611 0.189855 0.180183
300 1 0.248279 0.186124 0.186367
304 1 0.370474 0.185143 0.184726
308 1 0.50191 0.189818 0.191058
312 1 0.620597 0.18827 0.18872
316 1 0.74229 0.183609 0.197626
320 1 0.877886 0.186143 0.183332
292 1 0.998566 0.184156 0.184148
323 1 0.0706515 0.248727 0.18537
327 1 0.187263 0.249692 0.181169
331 1 0.313314 0.251631 0.188256
335 1 0.43398 0.254344 0.195089
339 1 0.558834 0.257893 0.188232
343 1 0.68484 0.247589 0.191382
347 1 0.815187 0.246829 0.191732
351 1 0.938833 0.247992 0.188292
324 1 0.996048 0.310952 0.185377
328 1 0.126355 0.312665 0.186102
332 1 0.254632 0.311564 0.189137
336 1 0.371923 0.317379 0.190896
340 1 0.501689 0.322999 0.189864
344 1 0.629601 0.318304 0.1898
348 1 0.750812 0.311333 0.193435
352 1 0.876546 0.312065 0.190716
355 1 0.0618368 0.368877 0.191245
359 1 0.188497 0.375545 0.192455
363 1 0.309899 0.380838 0.184501
367 1 0.436754 0.375018 0.188447
371 1 0.566705 0.380529 0.186746
375 1 0.685302 0.376666 0.190231
379 1 0.808237 0.37206 0.198623
383 1 0.935714 0.373286 0.185361
356 1 0.00211327 0.428782 0.184449
360 1 0.128001 0.433029 0.197345
364 1 0.248805 0.435048 0.185133
368 1 0.37412 0.439889 0.181327
372 1 0.496418 0.436818 0.187774
376 1 0.628226 0.440479 0.184484
380 1 0.750719 0.4301 0.189873
384 1 0.870023 0.432149 0.191975
387 1 0.0665297 0.49185 0.184342
391 1 0.192054 0.504668 0.188807
395 1 0.311758 0.499726 0.187166
399 1 0.439206 0.497309 0.188043
403 1 0.560181 0.499146 0.194103
407 1 0.692468 0.498277 0.189602
411 1 0.808464 0.494808 0.189486
415 1 0.932132 0.493128 0.189868
388 1 0.995741 0.55862 0.190388
392 1 0.122591 0.566219 0.186081
396 1 0.253613 0.564939 0.183906
400 1 0.379771 0.564641 0.188758
404 1 0.494255 0.563778 0.189272
408 1 0.622448 0.555969 0.187749
412 1 0.751528 0.560891 0.186677
416 1 0.874475 0.563096 0.19019
419 1 0.0579283 0.62209 0.194301
423 1 0.186932 0.623405 0.184206
427 1 0.315217 0.624905 0.189012
431 1 0.439857 0.627833 0.182372
435 1 0.558308 0.626798 0.193499
439 1 0.69228 0.62695 0.188955
443 1 0.81194 0.628031 0.186918
447 1 0.93746 0.625722 0.190475
420 1 0.997483 0.686012 0.182929
424 1 0.122067 0.676789 0.186832
428 1 0.250038 0.687735 0.186762
432 1 0.376778 0.685456 0.190426
436 1 0.49619 0.69151 0.183038
440 1 0.620423 0.688422 0.188688
444 1 0.750399 0.692011 0.183539
448 1 0.874094 0.683719 0.190756
451 1 0.0676785 0.74781 0.190289
455 1 0.189655 0.749642 0.184274
459 1 0.315763 0.749701 0.189416
463 1 0.437567 0.754754 0.183833
467 1 0.559596 0.753314 0.182427
471 1 0.682892 0.748668 0.18186
475 1 0.811738 0.751829 0.188157
479 1 0.929161 0.746441 0.190344
452 1 0.998775 0.814718 0.18851
456 1 0.130049 0.813195 0.187056
460 1 0.258949 0.809347 0.185477
464 1 0.374974 0.811246 0.191633
468 1 0.498203 0.810422 0.186312
472 1 0.626936 0.813482 0.188073
476 1 0.754715 0.813138 0.182988
480 1 0.877959 0.812274 0.190306
483 1 0.0650235 0.875944 0.185756
487 1 0.19037 0.869868 0.185667
491 1 0.318755 0.874544 0.185503
495 1 0.443101 0.870954 0.186482
499 1 0.559061 0.871041 0.187457
503 1 0.687611 0.879972 0.184794
507 1 0.812571 0.877839 0.188274
511 1 0.935602 0.875522 0.189758
488 1 0.125342 0.934842 0.187106
492 1 0.250072 0.932778 0.189253
496 1 0.378635 0.932476 0.188022
500 1 0.495079 0.938946 0.180396
504 1 0.620789 0.935951 0.187185
508 1 0.747351 0.943598 0.191672
512 1 0.872699 0.939269 0.183968
484 1 0.995751 0.937483 0.187403
259 1 0.0695449 1.00111 0.188529
263 1 0.189632 0.995095 0.189263
271 1 0.436144 -0.0002581 0.190933
275 1 0.554979 0.00543621 0.19054
279 1 0.684031 0.996464 0.189565
283 1 0.810207 0.0023179 0.181394
533 1 0.621651 1.00073 0.246793
514 1 0.062187 0.0668123 0.247479
518 1 0.188313 0.0624896 0.252981
522 1 0.311353 0.064075 0.250873
526 1 0.437669 0.0636499 0.249419
530 1 0.55559 0.0642988 0.255953
534 1 0.683764 0.0604176 0.248713
538 1 0.809892 0.0610327 0.248365
542 1 0.941749 0.0584386 0.246293
545 1 -0.000308453 0.121663 0.249687
549 1 0.123827 0.13286 0.247017
553 1 0.246585 0.123872 0.244162
557 1 0.368923 0.125406 0.254161
561 1 0.499151 0.13017 0.25465
565 1 0.625176 0.12565 0.254108
569 1 0.750168 0.11985 0.250464
573 1 0.873751 0.122147 0.254404
546 1 0.0614867 0.188891 0.247662
550 1 0.187919 0.192468 0.246256
554 1 0.305473 0.186027 0.25234
558 1 0.434939 0.187118 0.252701
562 1 0.560832 0.192418 0.252522
566 1 0.684828 0.185394 0.254811
570 1 0.805459 0.185203 0.255281
574 1 0.938487 0.1872 0.251245
581 1 0.127415 0.250459 0.25125
585 1 0.246193 0.247937 0.247733
589 1 0.366313 0.245423 0.251596
593 1 0.498531 0.255218 0.24808
597 1 0.619543 0.252566 0.248026
601 1 0.746255 0.247703 0.253499
605 1 0.876761 0.249585 0.246363
577 1 0.999599 0.243778 0.251017
578 1 0.0630585 0.305423 0.251042
582 1 0.190167 0.309804 0.251362
586 1 0.313027 0.313375 0.251037
590 1 0.43701 0.317513 0.249543
594 1 0.564619 0.322734 0.24543
598 1 0.690239 0.313576 0.252881
602 1 0.817593 0.307654 0.252205
606 1 0.938084 0.31474 0.249026
609 1 0.00166157 0.371598 0.249098
613 1 0.121266 0.3664 0.247829
617 1 0.254689 0.375602 0.24886
621 1 0.370829 0.377658 0.249172
625 1 0.498506 0.377703 0.254731
629 1 0.626945 0.379515 0.253622
633 1 0.749064 0.37394 0.25325
637 1 0.875803 0.376849 0.25126
610 1 0.0681692 0.439965 0.254575
614 1 0.189635 0.431446 0.255006
618 1 0.307094 0.440821 0.24545
622 1 0.436069 0.434716 0.246614
626 1 0.562048 0.43917 0.251464
630 1 0.692235 0.439923 0.251068
634 1 0.814836 0.434787 0.25525
638 1 0.940214 0.433245 0.246235
641 1 0.00129869 0.493587 0.245973
645 1 0.126819 0.501191 0.253748
649 1 0.248819 0.504876 0.251159
653 1 0.3751 0.49845 0.250565
657 1 0.499395 0.502228 0.250195
661 1 0.627157 0.495651 0.248097
665 1 0.755287 0.49834 0.252304
669 1 0.871589 0.497629 0.245435
642 1 0.0599727 0.556211 0.247839
646 1 0.184847 0.565823 0.246143
650 1 0.316452 0.564938 0.254707
654 1 0.434328 0.559584 0.248906
658 1 0.562356 0.563251 0.247385
662 1 0.692712 0.56149 0.248168
666 1 0.816707 0.56481 0.253912
670 1 0.938477 0.561399 0.251711
677 1 0.12281 0.627799 0.254203
681 1 0.255931 0.623954 0.24738
685 1 0.377508 0.623409 0.248934
689 1 0.501514 0.624301 0.252329
693 1 0.629205 0.62046 0.246167
697 1 0.750915 0.628498 0.251541
701 1 0.876499 0.625294 0.252884
673 1 0.997267 0.629968 0.252503
674 1 0.061619 0.68917 0.251256
678 1 0.191687 0.683768 0.247833
682 1 0.313818 0.685099 0.247188
686 1 0.443047 0.684634 0.252346
690 1 0.556038 0.689748 0.251902
694 1 0.688872 0.690814 0.244598
698 1 0.809629 0.687554 0.246918
702 1 0.941495 0.689763 0.248915
705 1 0.00278515 0.750027 0.250172
709 1 0.120836 0.751528 0.255577
713 1 0.248216 0.750093 0.24962
717 1 0.381376 0.745366 0.249873
721 1 0.501015 0.749434 0.247859
725 1 0.621431 0.748895 0.246932
729 1 0.759086 0.752372 0.252474
733 1 0.871517 0.74361 0.252787
706 1 0.0624014 0.817435 0.245623
710 1 0.186038 0.809502 0.254096
714 1 0.312726 0.809568 0.253592
718 1 0.439937 0.809117 0.249058
722 1 0.563314 0.81106 0.249373
726 1 0.697982 0.80933 0.24445
730 1 0.825168 0.81357 0.253044
734 1 0.940869 0.814868 0.246871
741 1 0.127928 0.873956 0.254653
745 1 0.248069 0.868387 0.251209
749 1 0.377184 0.873618 0.250114
753 1 0.49985 0.870474 0.250453
757 1 0.629957 0.876834 0.246509
761 1 0.757188 0.869586 0.247345
765 1 0.879862 0.875294 0.25
737 1 1.00165 0.878057 0.251359
742 1 0.183723 0.935992 0.252551
746 1 0.316897 0.93741 0.250149
750 1 0.442562 0.933348 0.24921
754 1 0.562725 0.942499 0.251096
758 1 0.69181 0.937448 0.25282
762 1 0.810845 0.937267 0.244127
766 1 0.942342 0.940055 0.249412
513 1 0.00526216 0.00325522 0.242835
738 1 0.0675417 0.93832 0.249117
517 1 0.129737 0.997969 0.248832
521 1 0.249303 0.000524648 0.251235
525 1 0.376865 1.00141 0.247506
529 1 0.494605 0.997384 0.248793
537 1 0.746528 0.00238463 0.247274
541 1 0.876937 0.997613 0.243295
523 1 0.312157 0.998821 0.313107
531 1 0.560312 0.00138833 0.313335
535 1 0.685001 0.0022421 0.312545
539 1 0.816175 0.000233317 0.308051
543 1 0.936969 1.00148 0.311261
516 1 0.000846375 0.057185 0.314463
520 1 0.122919 0.0601062 0.308095
524 1 0.253892 0.06667 0.311321
528 1 0.372518 0.0583075 0.305142
532 1 0.500534 0.065626 0.318252
536 1 0.620998 0.0576475 0.310682
567 1 0.6821 0.120038 0.314367
540 1 0.748539 0.0617438 0.312907
544 1 0.874772 0.057826 0.311608
547 1 0.0633446 0.124647 0.307128
551 1 0.186183 0.125653 0.305515
555 1 0.313724 0.129042 0.316256
559 1 0.435298 0.127596 0.315057
563 1 0.558587 0.127977 0.316304
571 1 0.810929 0.116237 0.313356
575 1 0.93725 0.121124 0.315698
548 1 0.997833 0.188477 0.315682
552 1 0.123702 0.185437 0.315065
556 1 0.248414 0.184166 0.318414
560 1 0.374435 0.188822 0.316709
564 1 0.497896 0.197854 0.312163
568 1 0.624907 0.194862 0.313415
572 1 0.748831 0.191315 0.316074
576 1 0.876253 0.185342 0.31109
579 1 0.06407 0.245132 0.310398
583 1 0.191201 0.245943 0.311176
587 1 0.307021 0.251131 0.315569
591 1 0.433744 0.256174 0.311338
595 1 0.562609 0.254424 0.309696
599 1 0.685973 0.251494 0.314377
603 1 0.812948 0.249857 0.319338
607 1 0.940456 0.248213 0.311175
584 1 0.122615 0.313699 0.311259
588 1 0.25699 0.315099 0.311219
592 1 0.367314 0.3174 0.314952
596 1 0.495877 0.315297 0.309666
600 1 0.626788 0.314424 0.308333
604 1 0.750055 0.310951 0.315808
608 1 0.875911 0.308125 0.314554
580 1 0.00325542 0.309635 0.313252
611 1 0.060329 0.369971 0.312763
615 1 0.192881 0.372891 0.319553
619 1 0.313142 0.382456 0.315171
623 1 0.433973 0.372583 0.313955
627 1 0.563354 0.374069 0.31388
631 1 0.685754 0.378567 0.313477
635 1 0.806173 0.368306 0.31289
639 1 0.936163 0.374151 0.315019
612 1 0.997974 0.437158 0.31069
616 1 0.129698 0.437643 0.315012
620 1 0.249651 0.438456 0.315844
624 1 0.380724 0.444433 0.313707
628 1 0.500441 0.434147 0.318759
632 1 0.621468 0.438544 0.310531
636 1 0.750908 0.443197 0.311218
640 1 0.882409 0.439686 0.307305
643 1 0.0630365 0.50223 0.314202
647 1 0.188828 0.504946 0.314878
651 1 0.306953 0.497775 0.311916
655 1 0.442958 0.500194 0.314471
659 1 0.561167 0.501775 0.309837
663 1 0.686378 0.502294 0.310963
667 1 0.817512 0.500783 0.313318
671 1 0.942466 0.50173 0.313809
644 1 0.00182598 0.559348 0.312213
648 1 0.12189 0.566847 0.318064
652 1 0.25236 0.564398 0.312441
656 1 0.378204 0.560388 0.312606
660 1 0.504903 0.559716 0.311244
664 1 0.624551 0.565428 0.306657
668 1 0.748597 0.562589 0.309012
672 1 0.873979 0.564845 0.315261
675 1 0.0586433 0.627981 0.311595
679 1 0.193697 0.62275 0.310614
683 1 0.313461 0.622747 0.31472
687 1 0.440117 0.620316 0.315147
691 1 0.56582 0.625905 0.307016
695 1 0.68924 0.627503 0.307594
699 1 0.813041 0.628125 0.31226
703 1 0.939628 0.623399 0.313758
680 1 0.123346 0.684217 0.313617
684 1 0.25689 0.682804 0.311468
688 1 0.378886 0.688573 0.314085
692 1 0.500347 0.680225 0.320224
696 1 0.627691 0.685706 0.310585
700 1 0.748422 0.68642 0.31013
704 1 0.875166 0.687495 0.316894
676 1 0.000791605 0.69127 0.31313
707 1 0.0634552 0.749884 0.318151
711 1 0.186085 0.743354 0.307114
715 1 0.314695 0.743399 0.308104
719 1 0.44099 0.749528 0.316009
723 1 0.567713 0.745252 0.313685
727 1 0.68902 0.749512 0.307501
731 1 0.820048 0.747826 0.314551
735 1 0.939044 0.754349 0.309717
712 1 0.128729 0.813662 0.315313
716 1 0.248879 0.806464 0.3113
720 1 0.377872 0.809143 0.315097
724 1 0.506406 0.807073 0.313158
728 1 0.629061 0.810404 0.305486
732 1 0.755817 0.810388 0.31841
736 1 0.87761 0.811548 0.316799
708 1 0.00364057 0.811683 0.313638
739 1 0.069282 0.873868 0.31541
743 1 0.191773 0.873751 0.311385
747 1 0.319001 0.876084 0.310571
751 1 0.437732 0.874832 0.315295
755 1 0.560861 0.869565 0.311086
759 1 0.693375 0.872505 0.304294
763 1 0.814645 0.876794 0.307755
767 1 0.93883 0.870981 0.313237
744 1 0.128835 0.93646 0.316417
748 1 0.25338 0.935317 0.308032
752 1 0.378487 0.940864 0.307394
756 1 0.503727 0.935961 0.309989
764 1 0.750927 0.942721 0.308458
768 1 0.880748 0.937589 0.308131
740 1 0.997972 0.937194 0.311083
515 1 0.059381 0.997491 0.306853
519 1 0.186446 1.00134 0.313518
527 1 0.436567 0.997588 0.312449
760 1 0.622843 0.940557 0.314423
778 1 0.315746 0.0624613 0.372858
770 1 0.0642729 0.0590711 0.374665
774 1 0.184165 0.0620938 0.37144
782 1 0.43437 0.0631512 0.373996
786 1 0.563668 0.0658108 0.375508
790 1 0.687139 0.0571123 0.377389
794 1 0.81486 0.0556823 0.372715
798 1 0.940271 0.0612328 0.370922
801 1 0.00654302 0.123657 0.372383
805 1 0.128228 0.120426 0.371332
809 1 0.251592 0.126488 0.377386
813 1 0.376892 0.125602 0.375414
817 1 0.4986 0.135953 0.376582
821 1 0.627692 0.126392 0.374174
825 1 0.74223 0.122401 0.37232
829 1 0.86919 0.128065 0.372912
802 1 0.0669966 0.185848 0.376156
806 1 0.185184 0.181795 0.374968
810 1 0.307937 0.190169 0.377567
814 1 0.435699 0.1999 0.375036
818 1 0.568877 0.1888 0.378648
822 1 0.686671 0.191669 0.375868
826 1 0.810052 0.1842 0.374439
830 1 0.936903 0.189585 0.374363
833 1 0.00549651 0.249858 0.374966
837 1 0.1317 0.251477 0.36995
841 1 0.242646 0.248737 0.377698
845 1 0.367521 0.252231 0.374377
849 1 0.501377 0.249368 0.382278
853 1 0.619775 0.252431 0.375739
857 1 0.747572 0.249892 0.375551
861 1 0.878991 0.251045 0.379372
834 1 0.0607395 0.310497 0.378279
838 1 0.189666 0.313705 0.375067
842 1 0.306643 0.315132 0.378319
846 1 0.435385 0.307465 0.373237
850 1 0.56144 0.314596 0.379063
854 1 0.682653 0.313422 0.375462
858 1 0.813417 0.310458 0.376632
862 1 0.941556 0.304545 0.370034
865 1 1.00003 0.372282 0.374786
869 1 0.120408 0.373852 0.372785
873 1 0.253796 0.377927 0.37716
877 1 0.377129 0.379934 0.37819
881 1 0.498982 0.372642 0.376219
885 1 0.626693 0.375464 0.376517
889 1 0.752997 0.379255 0.372852
893 1 0.873939 0.37024 0.374572
866 1 0.0596539 0.43297 0.37558
870 1 0.181457 0.437723 0.379691
874 1 0.314754 0.44365 0.372704
878 1 0.441866 0.437336 0.376592
882 1 0.565149 0.434685 0.376387
886 1 0.689788 0.433151 0.376055
890 1 0.817407 0.434596 0.371402
894 1 0.93771 0.440352 0.372935
901 1 0.126675 0.500061 0.37167
905 1 0.249934 0.503572 0.374707
909 1 0.372341 0.505931 0.379355
913 1 0.501145 0.501031 0.374634
917 1 0.629094 0.492305 0.372623
921 1 0.748381 0.49931 0.367744
925 1 0.872587 0.499482 0.37461
897 1 1.00081 0.499714 0.378228
898 1 0.0602658 0.557352 0.373894
902 1 0.194175 0.567939 0.377845
906 1 0.311577 0.566183 0.382418
910 1 0.436255 0.566952 0.37677
914 1 0.572208 0.558246 0.369478
918 1 0.693085 0.567892 0.370946
922 1 0.806254 0.5629 0.370871
926 1 0.935695 0.562496 0.370234
929 1 0.994139 0.628322 0.37494
933 1 0.123358 0.622377 0.377236
937 1 0.253233 0.630172 0.378198
941 1 0.375066 0.631128 0.374209
945 1 0.504615 0.61957 0.375532
949 1 0.627956 0.628405 0.372461
953 1 0.750891 0.634998 0.374112
957 1 0.876207 0.62291 0.376541
930 1 0.0558749 0.683717 0.377775
934 1 0.189806 0.683079 0.368131
938 1 0.319277 0.691053 0.375949
942 1 0.440155 0.686845 0.379471
946 1 0.564433 0.683992 0.372294
950 1 0.687279 0.688229 0.375359
954 1 0.815 0.691106 0.380565
958 1 0.937415 0.692781 0.369451
965 1 0.129009 0.754309 0.371616
969 1 0.251583 0.742742 0.375246
973 1 0.381177 0.748488 0.37944
977 1 0.501861 0.751847 0.37884
981 1 0.630971 0.749308 0.371376
985 1 0.743543 0.747582 0.372801
989 1 0.878048 0.746527 0.379593
961 1 0.00196374 0.750719 0.382331
962 1 0.0633201 0.814146 0.381436
966 1 0.189731 0.816425 0.373918
970 1 0.313966 0.807811 0.379024
974 1 0.440489 0.814808 0.374837
978 1 0.564442 0.812461 0.371377
982 1 0.688789 0.815579 0.367481
986 1 0.812478 0.812152 0.381569
990 1 0.945303 0.813841 0.377811
993 1 0.0030011 0.876688 0.371717
997 1 0.125475 0.876855 0.381275
1001 1 0.258278 0.876215 0.371588
1005 1 0.37414 0.877349 0.375587
1009 1 0.505267 0.872699 0.375068
1013 1 0.622785 0.877029 0.369842
1017 1 0.752694 0.873393 0.370613
1021 1 0.871431 0.876765 0.37651
994 1 0.0654403 0.936748 0.379084
998 1 0.186068 0.937253 0.375218
1002 1 0.309872 0.945274 0.376058
1006 1 0.43961 0.936306 0.372809
1010 1 0.561756 0.945547 0.378349
1014 1 0.69359 0.935686 0.371622
1018 1 0.808473 0.938006 0.37433
1022 1 0.934624 0.93015 0.376712
769 1 0.00251326 0.99508 0.377508
773 1 0.123631 0.998468 0.373098
777 1 0.249097 -0.0026702 0.374666
781 1 0.373923 0.998382 0.366773
785 1 0.49788 0.00133265 0.372935
789 1 0.62585 -0.00159023 0.377314
793 1 0.750642 0.997561 0.374997
797 1 0.873473 0.990698 0.376681
772 1 0.00475706 0.0657171 0.437
771 1 0.0597982 0.999279 0.43635
796 1 0.751128 0.0582547 0.433949
776 1 0.125176 0.0598295 0.436999
780 1 0.253563 0.0634009 0.43341
784 1 0.379207 0.0674583 0.438011
788 1 0.49118 0.0586219 0.43204
792 1 0.618329 0.0591767 0.436808
800 1 0.87421 0.0691973 0.438045
803 1 0.0628257 0.122064 0.432817
807 1 0.183785 0.123727 0.4391
811 1 0.314047 0.124214 0.434642
815 1 0.43516 0.130592 0.443952
819 1 0.562731 0.126466 0.433483
823 1 0.68655 0.119082 0.439474
827 1 0.810055 0.125319 0.436229
831 1 0.937117 0.122878 0.430941
804 1 0.00123239 0.188576 0.435958
808 1 0.126976 0.191471 0.435625
812 1 0.251213 0.189181 0.440407
816 1 0.369608 0.190775 0.435282
820 1 0.501404 0.190073 0.4413
824 1 0.630559 0.183416 0.438807
828 1 0.748243 0.191409 0.436825
832 1 0.873101 0.186965 0.432979
835 1 0.0634966 0.250044 0.439137
839 1 0.184634 0.253903 0.43734
843 1 0.312977 0.250211 0.438112
847 1 0.43897 0.249409 0.44141
851 1 0.565263 0.250022 0.439003
855 1 0.68389 0.250563 0.433179
859 1 0.810359 0.249175 0.434408
863 1 0.93917 0.249294 0.43529
836 1 1.00161 0.310366 0.441582
840 1 0.12309 0.312141 0.437151
844 1 0.248114 0.311325 0.438726
848 1 0.377462 0.308566 0.434059
852 1 0.50093 0.311686 0.438349
856 1 0.623764 0.313704 0.436189
860 1 0.74633 0.313076 0.430323
864 1 0.874184 0.310248 0.438744
867 1 0.0622504 0.373748 0.436735
871 1 0.190704 0.37393 0.434809
875 1 0.314914 0.38302 0.443359
879 1 0.438502 0.374573 0.435306
883 1 0.562852 0.375521 0.43807
887 1 0.687376 0.370071 0.440655
891 1 0.809799 0.373959 0.438716
895 1 0.940557 0.375421 0.443017
868 1 1.00186 0.437247 0.443973
872 1 0.12499 0.436018 0.441556
876 1 0.251388 0.439755 0.433974
880 1 0.374147 0.443407 0.434888
884 1 0.499069 0.428769 0.441081
888 1 0.629033 0.435265 0.43608
892 1 0.749499 0.431766 0.436976
896 1 0.871424 0.434679 0.435276
899 1 0.0629346 0.497107 0.430818
903 1 0.191192 0.504129 0.438978
907 1 0.313836 0.503482 0.438108
911 1 0.443671 0.500036 0.43449
915 1 0.564092 0.499119 0.435463
919 1 0.690198 0.49701 0.437942
923 1 0.808919 0.495493 0.432452
927 1 0.929733 0.493999 0.441705
904 1 0.118582 0.560259 0.438983
908 1 0.249795 0.561905 0.441056
912 1 0.379951 0.569813 0.436986