LAMMPS (15 Sep 2022)
OMP_NUM_THREADS environment is not set. Defaulting to 1 thread. (src/comm.cpp:98)
  using 1 OpenMP thread(s) per MPI task
# 3d WCA system, random initial configuration

#variable density equal 0.6
variable initial_temperature equal 3.0
variable final_temperature equal 0.1
variable dt equal 0.005
variable tau equal 100*${dt}
variable tau equal 100*0.005
variable thermo_time equal 50000*${dt}
variable thermo_time equal 50000*0.005
variable equil_steps equal 50000
variable run_steps equal 100000

units           lj
atom_style      atomic
dimension       3                # 修改1：将维度改为3

lattice         fcc ${density}   # 修改2：将晶格类型改为 fcc
lattice         fcc 1.0   
Lattice spacing in x,y,z = 1.5874011 1.5874011 1.5874011
region          box block 0 8 0 8 0 8    # 修改3：调整区域大小为 8x8x8

# number of atom types
create_box      1 box
Created orthogonal box = (0 0 0) to (12.699208 12.699208 12.699208)
  1 by 1 by 1 MPI processor grid
create_atoms    1 box
Created 2048 atoms
  using lattice units in orthogonal box = (0 0 0) to (12.699208 12.699208 12.699208)
  create_atoms CPU = 0.000 seconds
mass 1 1.0

velocity all create ${initial_temperature} 12345
velocity all create 3 12345

pair_style      lj/cut 1.0
#type_1 type_2 epsilon sigma cutoff
pair_coeff      1 1 10.0 0.89089871814 1.0
pair_modify shift yes

timestep ${dt}
timestep 0.005
thermo ${thermo_time}
thermo 250

fix 1 all nvt temp ${initial_temperature} ${initial_temperature} ${tau}
fix 1 all nvt temp 3 ${initial_temperature} ${tau}
fix 1 all nvt temp 3 3 ${tau}
fix 1 all nvt temp 3 3 0.5
run ${equil_steps}
run 50000
Generated 0 of 0 mixed pair_coeff terms from geometric mixing rule
Neighbor list info ...
  update: every = 1 steps, delay = 0 steps, check = yes
  max neighbors/atom: 2000, page size: 100000
  master list distance cutoff = 1.3
  ghost atom cutoff = 1.3
  binsize = 0.65, bins = 20 20 20
  1 neighbor lists, perpetual/occasional/extra = 1 0 0
  (1) pair lj/cut, perpetual
      attributes: half, newton on
      pair build: half/bin/atomonly/newton
      stencil: half/bin/3d
      bin: standard
Per MPI rank memory allocation (min/avg/max) = 3.169 | 3.169 | 3.169 Mbytes
   Step          Temp          E_pair         E_mol          TotEng         Press     
         0   3              0              0              4.4978027      2.9985352    
       250   2.7336845      1.5247853      0              5.6233098      22.737395    
       500   3.0856101      1.8804291      0              6.5065843      25.983265    
       750   2.9131975      1.7006807      0              6.0683433      24.443161    
      1000   3.0560195      1.7991799      0              6.3809709      25.356556    
      1250   2.9761738      1.6939143      0              6.1559952      24.222059    
      1500   3.078508       1.7056296      0              6.3211368      24.677792    
      1750   2.9236987      1.7874419      0              6.1708486      25.024088    
      2000   3.0287353      1.7515233      0              6.292408       24.849724    
      2250   2.9536116      1.6709775      0              6.0992316      24.095031    
      2500   3.0767675      1.7415141      0              6.3544118      25.010604    
      2750   2.9374113      1.7463522      0              6.1503177      24.660925    
      3000   3.1327464      1.7379764      0              6.4348015      24.785258    
      3250   3.0101718      1.7322437      0              6.2452967      24.532427    
      3500   3.0431206      1.6880221      0              6.2504742      24.644983    
      3750   3.007068       1.7403808      0              6.2487803      24.710632    
      4000   2.9553355      1.7975143      0              6.228353       25.083636    
      4250   3.0751144      1.8234996      0              6.4339189      25.505241    
      4500   2.9506511      1.7293654      0              6.1531809      24.548912    
      4750   3.0939015      1.7345583      0              6.3731445      25.039252    
      5000   2.9366162      1.6911741      0              6.0939476      24.365071    
      5250   3.0601829      1.7303935      0              6.3184265      24.987531    
      5500   2.9380073      1.6348946      0              6.0397537      23.625797    
      5750   2.99747        1.7817172      0              6.2757267      25.090284    
      6000   2.9331398      1.6517035      0              6.0492648      23.821677    
      6250   2.9947129      1.7936616      0              6.2835376      25.374698    
      6500   2.9730778      1.6968519      0              6.154291       24.558258    
      6750   3.0977754      1.728558       0              6.3729523      24.928006    
      7000   2.9169375      1.7581299      0              6.1313997      24.823312    
      7250   3.0803352      1.7879146      0              6.4061613      25.422533    
      7500   2.9041011      1.812554       0              6.1665786      25.325187    
      7750   3.0120476      1.8480582      0              6.3639235      25.695801    
      8000   2.9186597      1.7606244      0              6.1364764      24.80331     
      8250   3.0304267      1.7458785      0              6.289299       24.77315     
      8500   3.0175859      1.6921683      0              6.2163371      24.373693    
      8750   2.968979       1.7855479      0              6.2368419      24.868453    
      9000   2.966625       1.8090923      0              6.2568569      25.325577    
      9250   2.9373186      1.8159687      0              6.2197953      25.372285    
      9500   2.9823269      1.795633       0              6.266939       25.353935    
      9750   3.0098816      1.7417332      0              6.2543511      24.7086      
     10000   2.9921238      1.7210301      0              6.2070242      24.477895    
     10250   3.0201796      1.7582079      0              6.2862652      24.900696    
     10500   2.9242846      1.8260546      0              6.2103397      25.560601    
     10750   3.0210958      1.7197952      0              6.2492261      24.708188    
     11000   2.9588623      1.7362141      0              6.1723404      24.681825    
     11250   2.9854041      1.7602029      0              6.2361225      25.125421    
     11500   2.8911966      1.7441801      0              6.0788575      24.801618    
     11750   3.0235029      1.724427       0              6.2574669      24.70843     
     12000   3.0516156      1.6432279      0              6.2184162      24.107565    
     12250   3.0149217      1.7272545      0              6.2474288      24.536565    
     12500   2.9897918      1.7314886      0              6.2139865      24.653992    
     12750   3.1063813      1.8964454      0              6.5537421      26.229678    
     13000   2.9597501      1.7483906      0              6.185848       24.663318    
     13250   2.963391       1.8817755      0              6.3246915      26.135532    
     13500   2.9091901      1.7467173      0              6.1083716      24.827748    
     13750   3.0087716      1.7740002      0              6.284954       25.341167    
     14000   2.8847008      1.7233591      0              6.0482975      24.527444    
     14250   2.9784323      1.8026461      0              6.2681131      25.419244    
     14500   2.9993172      1.7089113      0              6.2056903      24.738323    
     14750   2.9813317      1.7275793      0              6.1973934      24.71815     
     15000   3.0410468      1.697329       0              6.2566719      24.322366    
     15250   3.0452981      1.6278274      0              6.1935441      23.963847    
     15500   2.9806564      1.7827741      0              6.2515756      25.097517    
     15750   3.0411214      1.7606534      0              6.320108       24.902421    
     16000   3.008836       1.7703877      0              6.2814379      25.142992    
     16250   3.0293897      1.676225       0              6.2180907      24.267354    
     16500   3.0294607      1.774727       0              6.3166992      25.243159    
     16750   2.9196329      1.7238687      0              6.1011797      24.65775     
     17000   3.0429197      1.8030371      0              6.3651879      25.479048    
     17250   2.9495034      1.7408592      0              6.1629539      24.826597    
     17500   2.9989704      1.8670423      0              6.3633014      25.953256    
     17750   3.002504       1.8150055      0              6.3165623      25.17825     
     18000   2.9564475      1.7546591      0              6.1871649      24.906641    
     18250   3.0511271      1.7426969      0              6.3171529      24.927306    
     18500   3.001738       1.7025328      0              6.2029413      24.58645     
     18750   3.0232556      1.7662768      0              6.2989459      25.072719    
     19000   2.9430907      1.7881739      0              6.2006544      25.312625    
     19250   3.0867186      1.6489938      0              6.2768109      23.91604     
     19500   2.9373496      1.6142471      0              6.0181201      23.538406    
     19750   3.0341639      1.7498216      0              6.2988452      24.927194    
     20000   2.9614776      1.7320034      0              6.1720508      24.624409    
     20250   2.9664103      1.8773224      0              6.3247652      25.915801    
     20500   2.9433363      1.7919393      0              6.204788       25.319836    
     20750   3.0376539      1.8813243      0              6.4355804      25.929897    
     21000   2.9658049      1.7165632      0              6.1630982      24.530188    
     21250   3.0542759      1.7793064      0              6.3584833      25.350736    
     21500   2.9826925      1.687662       0              6.1595162      24.410926    
     21750   3.063389       1.8018809      0              6.3947207      25.824375    
     22000   2.9495363      1.771354       0              6.1934982      25.225754    
     22250   3.0053167      1.8135461      0              6.31932        25.47148     
     22500   2.9017932      1.7286567      0              6.0792212      24.725915    
     22750   3.0749892      1.7235875      0              6.3338192      24.91864     
     23000   2.9330445      1.7507884      0              6.1482068      24.913462    
     23250   3.0736075      1.7759088      0              6.384069       25.182279    
     23500   2.9706321      1.7439205      0              6.1976929      24.778803    
     23750   3.0832467      1.8646589      0              6.4872707      25.850565    
     24000   3.0218904      1.6854337      0              6.216056       24.247563    
     24250   3.0980614      1.6930671      0              6.3378901      24.467955    
     24500   2.9174234      1.7576615      0              6.1316598      25.082539    
     24750   3.0415442      1.7627642      0              6.3228528      25.012465    
     25000   2.9814627      1.6700634      0              6.1400737      24.03878     
     25250   3.032134       1.762885       0              6.3088652      25.131226    
     25500   2.9623754      1.698399       0              6.1397925      24.466306    
     25750   2.9681637      1.7726328      0              6.2227043      25.194955    
     26000   2.966776       1.7613358      0              6.2093269      24.863744    
     26250   2.9966598      1.7103426      0              6.2031374      24.586233    
     26500   3.0488144      1.6612303      0              6.2322188      24.066882    
     26750   2.9327062      1.702207       0              6.0991184      24.373707    
     27000   3.002356       1.7944776      0              6.2958126      25.349458    
     27250   3.023133       1.6386741      0              6.1711593      23.685687    
     27500   2.9673161      1.8088219      0              6.2576227      25.506409    
     27750   3.0064024      1.7477143      0              6.2551159      24.783705    
     28000   2.9066107      1.8219631      0              6.1797503      25.382469    
     28250   3.0193496      1.7741626      0              6.3009756      25.255941    
     28500   2.9414503      1.6970305      0              6.1070515      24.540573    
     28750   3.0228014      1.7125315      0              6.2445197      24.511358    
     29000   2.9535275      1.7597286      0              6.1878567      25.059619    
     29250   3.0788832      1.7384434      0              6.3545131      24.922729    
     29500   2.9732161      1.7107566      0              6.1684031      24.548529    
     29750   3.0029466      1.7411093      0              6.2433297      24.932043    
     30000   3.0704505      1.6929619      0              6.2963888      24.512673    
     30250   2.9435405      1.7241545      0              6.1373093      24.415203    
     30500   3.0225569      1.7541562      0              6.2857778      25.040059    
     30750   2.9347295      1.7140295      0              6.1139742      24.468996    
     31000   3.0602548      1.7308071      0              6.318948       24.665182    
     31250   2.9094575      1.7115053      0              6.0735607      24.314971    
     31500   3.0220185      1.7763648      0              6.3071792      25.182837    
     31750   2.9605252      1.7213479      0              6.1599673      24.590859    
     32000   3.0007482      1.8403667      0              6.3392911      25.756132    
     32250   2.9586608      1.7430649      0              6.1788891      24.827667    
     32500   3.0890695      1.774897       0              6.4062386      25.12887     
     32750   2.9602659      1.7449887      0              6.1832194      24.909752    
     33000   3.0573578      1.7985754      0              6.3823728      25.481344    
     33250   2.9816798      1.6895306      0              6.1598665      24.551317    
     33500   3.1013607      1.6507777      0              6.3005472      24.288973    
     33750   2.9499566      1.6770683      0              6.0998425      24.085699    
     34000   3.0374824      1.7854376      0              6.3394365      25.307513    
     34250   2.983035       1.7253133      0              6.197681       24.416267    
     34500   3.1394659      1.71149        0              6.4183895      24.689889    
     34750   2.9721813      1.7123429      0              6.168438       24.541558    
     35000   3.0919887      1.8208681      0              6.4565865      25.597018    
     35250   3.0644354      1.671848       0              6.2662567      24.385839    
     35500   3.0091903      1.6947804      0              6.2063618      24.337633    
     35750   3.0163128      1.7697839      0              6.2920439      25.018859    
     36000   2.9967757      1.721635       0              6.2146036      24.616976    
     36250   3.1147161      1.7147553      0              6.3845482      24.646848    
     36500   2.9381388      1.7345271      0              6.1395833      24.646356    
     36750   3.0917023      1.6886095      0              6.3238985      24.286205    
     37000   2.9730958      1.6758546      0              6.1333208      24.187371    
     37250   3.0322628      1.7693103      0              6.3154836      24.853919    
     37500   2.9000751      1.7619674      0              6.109956       24.912637    
     37750   3.0457934      1.6996708      0              6.2661301      24.385126    
     38000   3.0051272      1.7220023      0              6.2274921      24.739521    
     38250   2.9439103      1.8302806      0              6.2439899      25.505802    
     38500   2.9786603      1.7754575      0              6.2412663      24.994009    
     38750   3.0409287      1.686773       0              6.2459388      24.26436     
     39000   3.0513893      1.7456541      0              6.320503       24.861302    
     39250   3.0047603      1.6842417      0              6.1891814      24.458939    
     39500   3.0977036      1.6699978      0              6.3142844      24.349622    
     39750   2.9812133      1.7409194      0              6.2105559      24.741449    
     40000   3.067261       1.8007549      0              6.3993999      25.517458    
     40250   2.9428961      1.7162059      0              6.1283946      24.477619    
     40500   3.0686985      1.7533334      0              6.3541335      25.071992    
     40750   2.9847041      1.6335516      0              6.1084217      24.046633    
     41000   3.0771809      1.743977       0              6.3574945      24.799614    
     41250   2.9560086      1.6329923      0              6.0648401      23.700257    
     41500   3.0479054      1.7476598      0              6.3172855      24.787908    
     41750   2.8946401      1.7064657      0              6.0463057      24.264426    
     42000   2.9784104      1.7971622      0              6.2625964      25.395182    
     42250   3.0081109      1.6999885      0              6.2099517      24.237225    
     42500   3.0300332      1.7286391      0              6.2714696      24.662263    
     42750   2.9716995      1.715685       0              6.1710578      24.355702    
     43000   3.0177908      1.7646283      0              6.2891043      25.150824    
     43250   2.9579859      1.7760406      0              6.2108529      25.2174      
     43500   3.0669744      1.7938104      0              6.3920257      25.268876    
     43750   2.9042794      1.8030325      0              6.1573244      25.203533    
     44000   3.0267981      1.8670956      0              6.4050758      25.864916    
     44250   2.951137       1.7323552      0              6.1568991      24.605299    
     44500   3.06254        1.7395739      0              6.3311408      24.988368    
     44750   2.9462283      1.6709797      0              6.0881642      24.160517    
     45000   3.0215673      1.7481322      0              6.2782701      25.078065    
     45250   2.9912319      1.6923282      0              6.1769852      24.245685    
     45500   3.1061488      1.6641002      0              6.3210483      24.344985    
     45750   2.8926041      1.782884       0              6.1196715      24.74896     
     46000   2.975653       1.761022       0              6.2223221      24.85544     
     46250   3.0058971      1.7387317      0              6.2453758      24.893476    
     46500   2.9701856      1.7201492      0              6.1732522      24.564043    
     46750   3.035145       1.6749941      0              6.2254886      24.317347    
     47000   3.0378394      1.7463793      0              6.3009135      25.097679    
     47250   2.9775479      1.7636149      0              6.2277559      24.855494    
     47500   3.0369017      1.7375379      0              6.2906661      24.612453    
     47750   3.012635       1.7540868      0              6.2708328      24.827124    
     48000   3.0294977      1.7228338      0              6.2648616      24.658632    
     48250   2.9556507      1.6856522      0              6.1169635      24.360827    
     48500   3.0510062      1.6941171      0              6.2683918      24.671354    
     48750   2.9368974      1.7329048      0              6.1360999      24.468977    
     49000   2.9426895      1.7473023      0              6.1591813      24.726403    
     49250   3.0418252      1.750571       0              6.3110809      24.838363    
     49500   2.9825953      1.6505652      0              6.1222735      24.053269    
     49750   2.9823827      1.7659501      0              6.2373398      24.878529    
     50000   3.0152084      1.8008172      0              6.3214214      25.349581    
Loop time of 18.2943 on 1 procs for 50000 steps with 2048 atoms

Performance: 1180698.247 tau/day, 2733.098 timesteps/s, 5.597 Matom-step/s
99.7% CPU use with 1 MPI tasks x 1 OpenMP threads

MPI task timing breakdown:
Section |  min time  |  avg time  |  max time  |%varavg| %total
---------------------------------------------------------------
Pair    | 5.0175     | 5.0175     | 5.0175     |   0.0 | 27.43
Neigh   | 10.81      | 10.81      | 10.81      |   0.0 | 59.09
Comm    | 0.78247    | 0.78247    | 0.78247    |   0.0 |  4.28
Output  | 0.0070513  | 0.0070513  | 0.0070513  |   0.0 |  0.04
Modify  | 1.2785     | 1.2785     | 1.2785     |   0.0 |  6.99
Other   |            | 0.3986     |            |       |  2.18

Nlocal:           2048 ave        2048 max        2048 min
Histogram: 1 0 0 0 0 0 0 0 0 0
Nghost:           1549 ave        1549 max        1549 min
Histogram: 1 0 0 0 0 0 0 0 0 0
Neighs:           9792 ave        9792 max        9792 min
Histogram: 1 0 0 0 0 0 0 0 0 0

Total # of neighbors = 9792
Ave neighs/atom = 4.78125
Neighbor list builds = 10849
Dangerous builds = 0

unfix 1
dump           1 all atom ${run_steps} 3dWCA_T${final_temperature}_d${density}_N${run_steps}.lammpstrj   # 修改4：将文件名前缀改为3d
dump           1 all atom 100000 3dWCA_T${final_temperature}_d${density}_N${run_steps}.lammpstrj   
dump           1 all atom 100000 3dWCA_T0.1_d${density}_N${run_steps}.lammpstrj   
dump           1 all atom 100000 3dWCA_T0.1_d1.0_N${run_steps}.lammpstrj   
dump           1 all atom 100000 3dWCA_T0.1_d1.0_N100000.lammpstrj   
dump           2 all dcd ${thermo_time} 3dWCA_T${final_temperature}_d${density}_N${run_steps}.dcd        # 修改4：将文件名前缀改为3d
dump           2 all dcd 250 3dWCA_T${final_temperature}_d${density}_N${run_steps}.dcd        
dump           2 all dcd 250 3dWCA_T0.1_d${density}_N${run_steps}.dcd        
dump           2 all dcd 250 3dWCA_T0.1_d1.0_N${run_steps}.dcd        
dump           2 all dcd 250 3dWCA_T0.1_d1.0_N100000.dcd        
fix 1 all nvt temp ${initial_temperature} ${final_temperature} ${tau}
fix 1 all nvt temp 3 ${final_temperature} ${tau}
fix 1 all nvt temp 3 0.1 ${tau}
fix 1 all nvt temp 3 0.1 0.5

run ${run_steps}
run 100000
Generated 0 of 0 mixed pair_coeff terms from geometric mixing rule
Per MPI rank memory allocation (min/avg/max) = 3.311 | 3.311 | 3.311 Mbytes
   Step          Temp          E_pair         E_mol          TotEng         Press     
     50000   3.0152084      1.8008172      0              6.3214214      25.349581    
     50250   2.9479663      1.6139448      0              6.0337351      23.73978     
     50500   2.9582798      1.7547956      0              6.1900486      24.924161    
     50750   2.9696612      1.7850058      0              6.2373226      25.058247    
     51000   2.939859       1.6858223      0              6.0934577      24.449874    
     51250   2.9439566      1.7788393      0              6.192618       25.11737     
     51500   2.953646       1.6898866      0              6.1181923      24.470569    
     51750   3.0830082      1.6905099      0              6.3127641      24.491765    
     52000   2.8872797      1.709524       0              6.0383289      24.527693    
     52250   3.0077353      1.7885294      0              6.2979293      25.233811    
     52500   2.905721       1.6709759      0              6.0274292      24.123683    
     52750   2.9932951      1.689093       0              6.1768433      24.501116    
     53000   2.8749555      1.6225485      0              5.9328761      23.452155    
     53250   2.9866574      1.5975723      0              6.0753709      23.442639    
     53500   2.8257508      1.676829       0              5.9133855      24.148918    
     53750   2.8838604      1.6808256      0              6.004504       24.325196    
     54000   2.9079261      1.6341719      0              5.9939313      23.779959    
     54250   2.8116668      1.6780325      0              5.8934734      24.170743    
     54500   2.8774929      1.6751776      0              5.9893094      24.025497    
     54750   2.9377934      1.5335713      0              5.9381097      22.745457    
     55000   2.8954481      1.6579508      0              5.9990023      24.070108    
     55250   2.839207       1.6192369      0              5.875968       23.647355    
     55500   2.9138312      1.7057705      0              6.0743831      24.216233    
     55750   2.8060126      1.6135107      0              5.8204744      23.504701    
     56000   2.9172098      1.684611       0              6.058289       24.27009     
     56250   2.8548754      1.5601273      0              5.8403494      23.244713    
     56500   2.8134971      1.6444651      0              5.8626501      23.573752    
     56750   2.772016       1.6273041      0              5.7832979      23.338582    
     57000   2.8232677      1.6290299      0              5.8618637      23.400788    
     57250   2.7404971      1.5387337      0              5.6474722      22.806126    
     57500   2.8049334      1.5824514      0              5.7877972      23.203539    
     57750   2.7933365      1.526827       0              5.7147859      22.568488    
     58000   2.6996284      1.6432913      0              5.6907567      23.735229    
     58250   2.7576414      1.6068223      0              5.7412646      23.314525    
     58500   2.6551279      1.5888828      0              5.56963        23.346703    
     58750   2.7943654      1.5839244      0              5.7734259      23.242929    
     59000   2.6868528      1.6097923      0              5.6381036      23.383353    
     59250   2.7255436      1.6049284      0              5.6912477      23.30292     
     59500   2.7390847      1.5503099      0              5.6569308      22.745453    
     59750   2.6577888      1.6049869      0              5.5897235      23.273518    
     60000   2.6804881      1.6861513      0              5.7049202      24.175893    
     60250   2.6486501      1.5127332      0              5.4837684      22.407293    
     60500   2.7212602      1.5562273      0              5.6361246      23.138804    
     60750   2.6537088      1.5215917      0              5.5002112      22.488869    
     61000   2.7271344      1.6237314      0              5.7124355      23.447062    
     61250   2.6540383      1.5121059      0              5.4912195      22.488669    
     61500   2.7051259      1.5961886      0              5.6518962      23.15249     
     61750   2.6530472      1.4900538      0              5.4676815      22.228292    
     62000   2.7018555      1.5532149      0              5.6040193      22.932615    
     62250   2.6127873      1.4725186      0              5.3897858      21.967716    
     62500   2.72094        1.4823181      0              5.5617352      22.11439     
     62750   2.5465795      1.4954753      0              5.3134793      22.385482    
     63000   2.6980399      1.462217       0              5.5073007      21.965449    
     63250   2.5222758      1.4329215      0              5.2144878      21.306287    
     63500   2.5890627      1.5444489      0              5.4261467      22.626861    
     63750   2.5444251      1.4971783      0              5.3119523      22.023195    
     64000   2.647875       1.506938       0              5.4768112      22.391354    
     64250   2.5286531      1.5069228      0              5.2980503      22.22714     
     64500   2.6979655      1.4324375      0              5.4774097      21.706445    
     64750   2.5641744      1.4823907      0              5.3267742      22.10642     
     65000   2.5768948      1.4741753      0              5.3376301      21.859257    
     65250   2.5876622      1.4597553      0              5.3393534      21.951826    
     65500   2.5582331      1.4314147      0              5.2668907      21.561324    
     65750   2.5968454      1.5159963      0              5.4093624      22.459483    
     66000   2.5142601      1.4257834      0              5.1953321      21.424636    
     66250   2.5843573      1.4706793      0              5.3453225      21.897793    
     66500   2.4932431      1.4423989      0              5.1804374      21.348536    
     66750   2.536001       1.4356667      0              5.2378108      21.548488    
     67000   2.493291       1.4002422      0              5.1383525      21.204711    
     67250   2.5240961      1.464685       0              5.2489804      21.86362     
     67500   2.4496624      1.3873353      0              5.0600347      21.149257    
     67750   2.5381109      1.4002048      0              5.2055122      21.366194    
     68000   2.4508921      1.407008       0              5.081551       21.12353     
     68250   2.4340505      1.4680415      0              5.1173345      21.638303    
     68500   2.4369313      1.4353366      0              5.0889487      21.644843    
     68750   2.4236866      1.4409391      0              5.0746938      21.450897    
     69000   2.4647631      1.368005       0              5.0633444      21.000968    
     69250   2.4131954      1.4031621      0              5.0211876      21.210378    
     69500   2.4207184      1.3931627      0              5.0224672      20.947879    
     69750   2.3797031      1.3255658      0              4.8933775      20.400717    
     70000   2.43608        1.4235724      0              5.0759081      21.386048    
     70250   2.3893648      1.351201       0              4.9334982      20.527032    
     70500   2.4527189      1.3972857      0              5.0745676      21.239325    
     70750   2.3571334      1.4004189      0              4.9343927      21.160636    
     71000   2.443179       1.4587628      0              5.1217418      21.906429    
     71250   2.3809395      1.3078951      0              4.8775605      19.890947    
     71500   2.4807765      1.3335197      0              5.0528675      20.620814    
     71750   2.3469839      1.3115142      0              4.8302711      20.083467    
     72000   2.3840073      1.4043714      0              4.9786362      21.125576    
     72250   2.3059663      1.309854       0              4.7671146      20.188433    
     72500   2.4003256      1.3201293      0              4.9188595      20.395596    
     72750   2.352639       1.3061978      0              4.8334332      19.975102    
     73000   2.3380986      1.3034332      0              4.8088686      20.116053    
     73250   2.3070607      1.2799061      0              4.7388074      19.882412    
     73500   2.4372034      1.2578925      0              4.9119124      19.913406    
     73750   2.3174228      1.2226865      0              4.6971234      19.299278    
     74000   2.3357847      1.3394624      0              4.8414286      20.517331    
     74250   2.2538856      1.2430096      0              4.6221873      19.423187    
     74500   2.351286       1.2764742      0              4.8016812      19.964095    
     74750   2.2784638      1.2736768      0              4.6897037      19.687097    
     75000   2.3149842      1.2587655      0              4.7295463      19.914086    
     75250   2.2168797      1.2549399      0              4.5786358      19.570739    
     75500   2.31024        1.2980089      0              4.7616769      20.126356    
     75750   2.2538906      1.238958       0              4.6181431      19.610741    
     76000   2.1963999      1.3361429      0              4.6291341      20.289782    
     76250   2.2943955      1.245337       0              4.6852497      19.410421    
     76500   2.2109814      1.211749       0              4.5266018      19.086097    
     76750   2.2588546      1.3050643      0              4.6916918      20.178122    
     77000   2.1937111      1.2434239      0              4.5323838      19.420795    
     77250   2.2887123      1.2625471      0              4.6939393      19.855204    
     77500   2.2126262      1.1924951      0              4.5098138      19.0659      
     77750   2.179365       1.2748292      0              4.5422805      19.686758    
     78000   2.1834551      1.2455867      0              4.5191701      19.28085     
     78250   2.2105357      1.1998609      0              4.5140454      18.977247    
     78500   2.1618706      1.2490713      0              4.4902938      19.359656    
     78750   2.1813391      1.2022669      0              4.4726779      18.972696    
     79000   2.1536752      1.1573039      0              4.3862393      18.453134    
     79250   2.2422393      1.188223       0              4.5499397      18.997716    
     79500   2.1259075      1.1817622      0              4.3690664      18.809659    
     79750   2.1813444      1.1948991      0              4.4653181      18.861451    
     80000   2.1006523      1.1462397      0              4.2956796      18.315313    
     80250   2.1726009      1.2100489      0              4.4673591      19.262621    
     80500   2.1037977      1.2040377      0              4.3581934      18.842611    
     80750   2.0629022      1.2406656      0              4.333508       19.123287    
     81000   2.105973       1.1888204      0              4.3462375      18.739789    
     81250   2.0896644      1.161396       0              4.294362       18.450301    
     81500   2.1424803      1.2327201      0              4.4448713      19.417598    
     81750   2.0334815      1.1744387      0              4.2231715      18.630143    
     82000   2.0917074      1.2401771      0              4.3762063      19.196165    
     82250   2.0154578      1.161848       0              4.1835585      18.598567    
     82500   2.0953318      1.1683339      0              4.309797       18.657624    
     82750   1.9889485      1.1422134      0              4.1241795      18.360386    
     83000   2.1147556      1.1016449      0              4.2722295      17.688377    
     83250   2.0097771      1.1307436      0              4.1439371      18.175291    
     83500   2.0523533      1.1422943      0              4.2193211      18.327961    
     83750   1.9799836      1.1105596      0              4.0790848      17.957083    
     84000   2.0351557      1.1959483      0              4.2471913      18.867087    
     84250   2.0246203      1.0850493      0              4.1204968      17.831367    
     84500   2.0081942      1.1531217      0              4.1639422      18.32475     
     84750   1.9616132      1.1047986      0              4.0457817      17.932831    
     85000   2.0254606      1.0866154      0              4.1233228      17.855769    
     85250   1.9917803      1.0667884      0              4.0530001      17.400815    
     85500   1.9740979      1.0807035      0              4.0404045      17.613305    
     85750   1.9141382      1.1227193      0              3.9925247      18.037237    
     86000   1.9594798      1.0773195      0              4.015104       17.273617    
     86250   1.921726       1.1096701      0              3.9908515      17.884257    
     86500   1.9309012      1.0778272      0              3.9727647      17.68536     
     86750   1.908693       1.0994033      0              3.9610448      17.670854    
     87000   1.9359776      1.0519312      0              3.9544796      17.176716    
     87250   1.924399       1.0532731      0              3.9384621      17.380385    
     87500   1.8283681      1.0449884      0              3.7862014      17.105777    
     87750   1.8636986      1.1489202      0              3.943103       18.249905    
     88000   1.9028421      0.9980936      0              3.850963       16.805917    
     88250   1.9112994      1.0813987      0              3.946948       17.413918    
     88500   1.8576748      1.0513307      0              3.8364822      17.219882    
     88750   1.9446785      1.0625401      0              3.9781335      17.497328    
     89000   1.8732772      0.98793239     0              3.7964762      16.466841    
     89250   1.891676       1.0576601      0              3.8937886      17.421607    
     89500   1.8124372      1.0142131      0              3.7315414      16.904648    
     89750   1.8437274      1.0791314      0              3.8433722      17.489484    
     90000   1.8634458      0.98026487     0              3.7740688      16.443066    
     90250   1.8434436      0.99975542     0              3.7635707      16.658108    
     90500   1.8000999      1.029686       0              3.7285174      16.829594    
     90750   1.8413286      1.0080401      0              3.7686843      16.656854    
     91000   1.8312753      0.99947416     0              3.7450458      16.467283    
     91250   1.7809386      0.98689656     0              3.6570001      16.39516     
     91500   1.869587       0.99189145     0              3.7949026      16.569401    
     91750   1.7572781      1.0047421      0              3.6393722      16.664468    
     92000   1.7890135      1.0216395      0              3.7038494      16.886323    
     92250   1.7398744      0.98652405     0              3.5950613      16.411634    
     92500   1.7912784      0.96709325     0              3.6526989      16.194329    
     92750   1.7415503      0.99767176     0              3.6087216      16.426656    
     93000   1.7068589      0.91427521     0              3.4733134      15.649592    
     93250   1.7520061      0.97136079     0              3.5980867      16.293208    
     93500   1.7190184      0.94306213     0              3.5203307      15.997481    
     93750   1.7370672      0.94991536     0              3.5542439      15.975849    
     94000   1.7142459      0.95535599     0              3.5254693      16.20779     
     94250   1.6938156      0.90465984     0              3.4441426      15.496935    
     94500   1.7143795      0.97560061     0              3.5459142      16.416048    
     94750   1.7103194      0.8959076      0              3.460134       15.264962    
     95000   1.733773       0.95496678     0              3.5543564      16.276853    
     95250   1.6730914      0.89765699     0              3.4060687      15.424782    
     95500   1.721408       0.94835325     0              3.5292044      15.895385    
     95750   1.6074788      0.96238051     0              3.3724213      16.155313    
     96000   1.6771065      0.95250678     0              3.4669381      16.101601    
     96250   1.6283844      0.87505391     0              3.3164379      15.167684    
     96500   1.6342489      0.95618355     0              3.4063599      16.034727    
     96750   1.6311073      0.91487013     0              3.3603364      15.507544    
     97000   1.633261       0.8936194      0              3.3423146      15.295513    
     97250   1.6687242      0.79532667     0              3.2971907      14.295117    
     97500   1.6376591      0.89358491     0              3.3488741      15.42829     
     97750   1.6073808      0.87693038     0              3.2868243      15.153653    
     98000   1.6109412      0.8732598      0              3.2884917      15.146983    
     98250   1.5784576      0.82198766     0              3.188518       14.331784    
     98500   1.6311907      0.87989997     0              3.3254914      15.294086    
     98750   1.5715888      0.86633221     0              3.2225643      15.038616    
     99000   1.585362       0.8547257      0              3.2316076      14.744389    
     99250   1.5641214      0.85907278     0              3.2041093      14.970711    
     99500   1.5637706      0.84502833     0              3.1895389      14.859113    
     99750   1.56376        0.79717582     0              3.1416705      14.306772    
    100000   1.5580399      0.84718402     0              3.1831028      14.799804    
    100250   1.5080997      0.82378435     0              3.0848294      14.574385    
    100500   1.549395       0.84078241     0              3.1637401      14.792044    
    100750   1.47896        0.79369542     0              3.0110522      14.016274    
    101000   1.511379       0.84811817     0              3.1140797      14.79935     
    101250   1.4866842      0.78595364     0              3.014891       14.034549    
    101500   1.5180932      0.8189321      0              3.09496        14.401973    
    101750   1.4915585      0.78360432     0              3.0198496      13.886843    
    102000   1.5598772      0.79269847     0              3.1313717      14.143952    
    102250   1.4978048      0.77975082     0              3.025361       13.716198    
    102500   1.4539849      0.79500128     0              2.9749136      14.069639    
    102750   1.502332       0.81331929     0              3.065717       14.260731    
    103000   1.4515949      0.7730663      0              2.9493954      13.969807    
    103250   1.4618158      0.79933545     0              2.9909885      14.073279    
    103500   1.4447051      0.75852129     0              2.9245209      13.658538    
    103750   1.4393822      0.76148686     0              2.919506       13.810698    
    104000   1.4384893      0.80042571     0              2.957106       14.142859    
    104250   1.3918572      0.79830402     0              2.8850704      13.962886    
    104500   1.422555       0.76092379     0              2.8937144      14.017239    
    104750   1.4063395      0.75861354     0              2.8670928      13.633295    
    105000   1.4234478      0.7213422      0              2.8554714      13.38491     
    105250   1.3947405      0.68415014     0              2.7752394      12.824231    
    105500   1.4220298      0.7569422      0              2.8889453      13.58034     
    105750   1.3802266      0.71956532     0              2.7888943      13.196906    
    106000   1.3855845      0.71854804     0              2.79591        13.205838    
    106250   1.3571253      0.75830122     0              2.7929951      13.482529    
    106500   1.3463075      0.72697952     0              2.7454547      13.33704     
    106750   1.358557       0.69420825     0              2.7310487      12.829135    
    107000   1.3669136      0.70948024     0              2.7588495      13.096493    
    107250   1.3053899      0.71196456     0              2.6690933      12.933806    
    107500   1.350612       0.69827474     0              2.7232035      12.802416    
    107750   1.3292383      0.66727649     0              2.6601605      12.489449    
    108000   1.3428153      0.69680549     0              2.7100449      12.859685    
    108250   1.30756        0.68389778     0              2.6442801      12.636173    
    108500   1.3151835      0.68505072     0              2.6568627      12.632662    
    108750   1.2891015      0.66150512     0              2.5942132      12.442459    
    109000   1.315949       0.65439378     0              2.6273534      12.282898    
    109250   1.2719561      0.64332015     0              2.5503227      12.097399    
    109500   1.2788159      0.67957849     0              2.5968656      12.527557    
    109750   1.2345035      0.65737276     0              2.5082238      12.403235    
    110000   1.2912953      0.68040363     0              2.6164008      12.530116    
    110250   1.2268235      0.67801591     0              2.5173526      12.673935    
    110500   1.2853243      0.59831301     0              2.5253581      11.702779    
    110750   1.2431228      0.63985436     0              2.5036281      12.065068    
    111000   1.2295563      0.64108117     0              2.4845151      12.04888     
    111250   1.2067201      0.59803195     0              2.4072283      11.584005    
    111500   1.2288713      0.65703087     0              2.4994378      12.200352    
    111750   1.2182476      0.60484017     0              2.4313193      11.733089    
    112000   1.1974966      0.63237589     0              2.4277438      12.073578    
    112250   1.1939872      0.60695128     0              2.3970576      11.73951     
    112500   1.1823324      0.61952088     0              2.3921535      11.834961    
    112750   1.1917183      0.58933311     0              2.3760377      11.50562     
    113000   1.1892778      0.61461507     0              2.3976608      11.662336    
    113250   1.1522747      0.60436626     0              2.3319344      11.528302    
    113500   1.1527211      0.61348103     0              2.3417185      11.684105    
    113750   1.159187       0.58118981     0              2.3191212      11.298555    
    114000   1.1354106      0.55817649     0              2.2604608      11.110929    
    114250   1.1410612      0.58713511     0              2.2978912      11.446918    
    114500   1.1094794      0.58072409     0              2.2441306      11.229357    
    114750   1.1143749      0.56440186     0              2.2351479      11.001477    
    115000   1.1544385      0.52041714     0              2.2512294      10.658699    
    115250   1.0935589      0.56975085     0              2.2092882      11.026603    
    115500   1.1151908      0.55303122     0              2.2250007      10.91665     
    115750   1.0988154      0.54576736     0              2.1931857      10.834423    
    116000   1.0670135      0.54146059     0              2.1411994      10.831183    
    116250   1.0995416      0.54932859     0              2.1978357      10.966042    
    116500   1.0729576      0.53886312     0              2.1475137      10.808608    
    116750   1.0529783      0.54370069     0              2.122397       10.810229    
    117000   1.0300003      0.53478066     0              2.0790267      10.562183    
    117250   1.0722341      0.53563994     0              2.1432058      10.752354    
    117500   1.0289289      0.53171137     0              2.0743511      10.528417    
    117750   1.0470305      0.53847524     0              2.1082541      10.723076    
    118000   1.0153327      0.52549006     0              2.0477454      10.417255    
    118250   1.0054949      0.50956616     0              2.0170721      10.274025    
    118500   1.0208936      0.50851546     0              2.0391082      10.341091    
    118750   0.99247417     0.46905563     0              1.95704        9.795569     
    119000   1.0127557      0.4931579      0              2.0115497      10.129319    
    119250   0.99092846     0.45997693     0              1.9456438      9.656267     
    119500   1.0039977      0.46035975     0              1.9656209      9.7318819    
    119750   0.97141019     0.47134241     0              1.9277462      9.8130943    
    120000   0.95779171     0.50157474     0              1.9375608      10.112298    
    120250   0.94544268     0.50292571     0              1.9203973      10.105867    
    120500   0.92747889     0.48851188     0              1.8790509      10.000923    
    120750   0.96656108     0.47882906     0              1.9279628      9.8438301    
    121000   0.93738344     0.45534376     0              1.8607324      9.5694615    
    121250   0.9605277      0.43930378     0              1.8793918      9.4094459    
    121500   0.92279558     0.44027313     0              1.8237906      9.3431139    
    121750   0.92767421     0.46985889     0              1.8606908      9.6654802    
    122000   0.90684893     0.45463717     0              1.8142464      9.6192487    
    122250   0.89111106     0.44000348     0              1.7760174      9.4547863    
    122500   0.8988383      0.46425716     0              1.8118563      9.7038064    
    122750   0.88731946     0.42481632     0              1.7551456      9.0763348    
    123000   0.87330367     0.44761292     0              1.7569288      9.3823773    
    123250   0.86297012     0.39434264     0              1.6881658      8.6440364    
    123500   0.88524124     0.42580557     0              1.7530191      9.1333676    
    123750   0.84920593     0.42406916     0              1.6972561      9.0387389    
    124000   0.86144873     0.40667078     0              1.6982129      8.84266      
    124250   0.85120024     0.40288545     0              1.6790624      8.8878955    
    124500   0.80969258     0.40746298     0              1.6214088      8.8302506    
    124750   0.85083803     0.38946467     0              1.6650985      8.7296345    
    125000   0.8127056      0.40755566     0              1.6260188      8.9231274    
    125250   0.82200673     0.3975834      0              1.6299914      8.6329339    
    125500   0.81616333     0.37747842     0              1.6011256      8.3597586    
    125750   0.82255359     0.36072516     0              1.5939531      8.2043168    
    126000   0.79656781     0.37920137     0              1.5734697      8.3988556    
    126250   0.77352661     0.37852217     0              1.5382455      8.4395501    
    126500   0.80233693     0.38092626     0              1.583844       8.4247756    
    126750   0.78440844     0.34642828     0              1.5224664      7.9242079    
    127000   0.76225624     0.36998396     0              1.51281        8.2407669    
    127250   0.74797327     0.36905941     0              1.4904715      8.2680309    
    127500   0.76405266     0.33679917     0              1.4823185      7.7833645    
    127750   0.745196       0.35815635     0              1.4754045      7.9822638    
    128000   0.72539198     0.33535245     0              1.4229091      7.7645292    
    128250   0.73694567     0.34999507     0              1.4548738      7.8647718    
    128500   0.70514698     0.32831209     0              1.3855161      7.6272537    
    128750   0.73264901     0.33545963     0              1.4338965      7.7420285    
    129000   0.70218069     0.31695992     0              1.3697167      7.415324     
    129250   0.71000621     0.33431652     0              1.3988058      7.7306396    
    129500   0.68546418     0.3070895      0              1.3347837      7.2866651    
    129750   0.70023262     0.32077283     0              1.3706089      7.4676348    
    130000   0.66938387     0.31271172     0              1.3162973      7.3121724    
    130250   0.68455442     0.30387171     0              1.330202       7.1810398    
    130500   0.66853274     0.29189198     0              1.2942014      7.0099592    
    130750   0.66506524     0.30499196     0              1.3021027      7.2192364    
    131000   0.6464895      0.2925481      0              1.2618088      7.051919     
    131250   0.65138905     0.30006552     0              1.276672       7.1334963    
    131500   0.63466044     0.28609088     0              1.2376167      7.0379923    
    131750   0.63131363     0.28224143     0              1.2287495      6.9455922    
    132000   0.61938969     0.28001329     0              1.2086442      6.8870899    
    132250   0.63126285     0.27953746     0              1.2259694      6.9165363    
    132500   0.60877476     0.25534057     0              1.1680568      6.3961636    
    132750   0.60582502     0.27601711     0              1.1843109      6.7108621    
    133000   0.5914216      0.25499691     0              1.1416961      6.4767089    
    133250   0.59751808     0.2709855      0              1.166825       6.7013342    
    133500   0.57181943     0.25235719     0              1.1096675      6.3586699    
    133750   0.58454064     0.25454319     0              1.130926       6.4336656    
    134000   0.56547772     0.23752323     0              1.0853256      6.1088872    
    134250   0.56832243     0.23040002     0              1.0824674      5.9590883    
    134500   0.55199817     0.23785373     0              1.0654467      6.0534494    
    134750   0.52641771     0.24037192     0              1.0296129      6.1380195    
    135000   0.54729055     0.22964713     0              1.0501821      5.9270035    
    135250   0.51673366     0.22770133     0              1.0024234      5.9320325    
    135500   0.52618155     0.22177441     0              1.0106614      5.8068351    
    135750   0.51335533     0.22286807     0              0.99252508     5.7931813    
    136000   0.50249488     0.21407844     0              0.96745272     5.7338069    
    136250   0.50212539     0.21050725     0              0.96332756     5.5729306    
    136500   0.49280753     0.20246317     0              0.94131351     5.5176494    
    136750   0.48926097     0.20264268     0              0.93617579     5.5247381    
    137000   0.47210998     0.19419079     0              0.90200998     5.3666178    
    137250   0.47733876     0.19967159     0              0.91533011     5.4031238    
    137500   0.45297027     0.19350558     0              0.87262922     5.226558     
    137750   0.46759563     0.18557192     0              0.88662288     5.1233147    
    138000   0.4432121      0.18975396     0              0.85424748     5.1977201    
    138250   0.43744125     0.18327903     0              0.83912051     5.128411     
    138500   0.44140142     0.17226433     0              0.83404316     4.9494643    
    138750   0.41768565     0.17328306     0              0.79950561     4.9178618    
    139000   0.4255908      0.17846406     0              0.81653855     4.9294255    
    139250   0.40741358     0.16506715     0              0.77588913     4.7116495    
    139500   0.39843624     0.18063515     0              0.77799768     5.007759     
    139750   0.39633453     0.15410197     0              0.74831348     4.5408672    
    140000   0.40772105     0.16069196     0              0.77197491     4.675247     
    140250   0.37543695     0.15443384     0              0.71731428     4.5454959    
    140500   0.37981354     0.15285707     0              0.72229919     4.4314102    
    140750   0.36749867     0.1350367      0              0.68601555     4.0752121    
    141000   0.37492721     0.13547371     0              0.69758993     4.1926568    
    141250   0.34984575     0.1352482      0              0.65976059     4.1745047    
    141500   0.35310108     0.13528271     0              0.66467571     4.1267438    
    141750   0.33509136     0.13694074     0              0.63933235     4.1226813    
    142000   0.32002004     0.13044153     0              0.61023721     3.9778771    
    142250   0.33569262     0.13011226     0              0.63340531     4.017387     
    142500   0.31863306     0.1113666      0              0.58908282     3.6610924    
    142750   0.31424        0.11721557     0              0.58834542     3.7930444    
    143000   0.30135572     0.10818504     0              0.5599979      3.5281739    
    143250   0.30346669     0.11551746     0              0.57049524     3.7165135    
    143500   0.28786898     0.10312241     0              0.53471504     3.4642491    
    143750   0.27704387     0.10355973     0              0.51892262     3.492194     
    144000   0.27460903     0.090772999    0              0.50248542     3.1532764    
    144250   0.27194561     0.099120704    0              0.50683995     3.3279456    
    144500   0.2602466      0.089130179    0              0.47930947     3.120653     
    144750   0.25088205     0.080672826    0              0.45681215     2.9305739    
    145000   0.24873717     0.086473738    0              0.45939732     3.0697237    
    145250   0.24164324     0.075544757    0              0.43783264     2.8247043    
    145500   0.22655259     0.079174447    0              0.4188374      2.9266557    
    145750   0.22320038     0.076859166    0              0.41149626     2.8161135    
    146000   0.21617935     0.067492218    0              0.39160291     2.63619      
    146250   0.20447584     0.068968997    0              0.37553299     2.6063961    
    146500   0.20298389     0.069123484    0              0.37345064     2.6123603    
    146750   0.19560954     0.066517737    0              0.35978877     2.5234929    
    147000   0.18485906     0.060403962    0              0.33755715     2.4077286    
    147250   0.17654321     0.055757087    0              0.3204426      2.2699244    
    147500   0.17185148     0.057319832    0              0.31497119     2.308499     
    147750   0.16440049     0.052113083    0              0.2985934      2.1742188    
    148000   0.15565996     0.050935472    0              0.2843114      2.1707157    
    148250   0.15031187     0.044951904    0              0.27030962     1.9247078    
    148500   0.14875293     0.037337882    0              0.26035833     1.7579707    
    148750   0.13916079     0.038419417    0              0.24705867     1.8054368    
    149000   0.1299388      0.037120216    0              0.23193325     1.7039401    
    149250   0.12101073     0.038042371    0              0.21946983     1.8149224    
    149500   0.11821759     0.0286783      0              0.2059181      1.4270039    
    149750   0.10828159     0.029292109    0              0.19163518     1.4703634    
    150000   0.10217568     0.025544227    0              0.1787329      1.3549577    
Loop time of 28.9216 on 1 procs for 100000 steps with 2048 atoms

Performance: 1493692.513 tau/day, 3457.622 timesteps/s, 7.081 Matom-step/s
99.2% CPU use with 1 MPI tasks x 1 OpenMP threads

MPI task timing breakdown:
Section |  min time  |  avg time  |  max time  |%varavg| %total
---------------------------------------------------------------
Pair    | 8.9904     | 8.9904     | 8.9904     |   0.0 | 31.09
Neigh   | 15.221     | 15.221     | 15.221     |   0.0 | 52.63
Comm    | 1.2621     | 1.2621     | 1.2621     |   0.0 |  4.36
Output  | 0.15372    | 0.15372    | 0.15372    |   0.0 |  0.53
Modify  | 2.5758     | 2.5758     | 2.5758     |   0.0 |  8.91
Other   |            | 0.7184     |            |       |  2.48

Nlocal:           2048 ave        2048 max        2048 min
Histogram: 1 0 0 0 0 0 0 0 0 0
Nghost:           1551 ave        1551 max        1551 min
Histogram: 1 0 0 0 0 0 0 0 0 0
Neighs:          10512 ave       10512 max       10512 min
Histogram: 1 0 0 0 0 0 0 0 0 0

Total # of neighbors = 10512
Ave neighs/atom = 5.1328125
Neighbor list builds = 15324
Dangerous builds = 0
Total wall time: 0:00:47
