ITEM: TIMESTEP
100000
ITEM: NUMBER OF ATOMS
2048
ITEM: BOX BOUNDS pp pp pp
0.0000000000000000e+00 1.3153131063095840e+01
0.0000000000000000e+00 1.3153131063095840e+01
0.0000000000000000e+00 1.3153131063095840e+01
ITEM: ATOMS id type xs ys zs
489 1 0.308618 0.405232 0.0351109
1750 1 0.412516 0.992127 0.224914
853 1 0.589009 0.0643472 0.0180327
1180 1 0.911389 0.0760137 0.861228
14 1 0.159226 0.199439 0.0556929
703 1 0.245547 0.066717 0.0339061
1962 1 0.509049 0.9763 0.000705779
53 1 0.708537 0.00515828 0.109603
191 1 0.761035 0.0014141 0.046039
1657 1 0.045619 0.101733 0.0810381
1302 1 0.242729 0.25483 0.987364
923 1 0.316801 0.261072 0.958998
1166 1 0.870012 0.166976 0.996586
357 1 0.121027 0.136439 0.969264
236 1 0.304063 0.0676607 0.0952857
1212 1 0.471048 0.0615544 0.877621
640 1 0.792895 0.117858 0.0315701
567 1 0.338191 0.373448 0.115178
1937 1 0.422356 0.204512 0.0136721
1178 1 0.465763 0.176074 0.957723
1414 1 0.552846 0.177438 0.905106
166 1 0.845058 0.198213 0.12839
1987 1 0.988592 0.341101 0.974451
1210 1 0.99479 0.293933 0.0904336
986 1 0.0156756 0.270263 0.00758834
679 1 0.360533 0.325784 0.0487572
1484 1 0.248114 0.357936 0.0830137
198 1 0.389769 0.402512 0.0702649
1012 1 0.201905 0.269591 0.0785834
1889 1 0.327372 0.454015 0.172353
1799 1 0.728792 0.261058 0.0217556
1395 1 0.593771 0.373144 0.100685
1352 1 0.810811 0.369456 0.0269077
333 1 0.907832 0.319259 0.973641
2018 1 0.242592 0.510833 0.0862964
1438 1 0.721184 0.318984 0.0641044
1768 1 0.946416 0.475183 0.103705
1360 1 0.159393 0.438 0.00881884
245 1 0.164536 0.614669 0.974474
1482 1 0.25785 0.491661 0.919383
569 1 0.393109 0.345489 0.199399
786 1 0.519753 0.337489 0.979271
1209 1 0.743061 0.417712 0.0472881
1308 1 0.88373 0.464405 0.133987
8 1 0.0694083 0.656986 0.0564817
327 1 0.446507 0.4327 0.968043
117 1 0.531785 0.363328 0.0585322
1857 1 0.840359 0.486812 0.0187582
1834 1 0.764548 0.524926 0.941031
1289 1 0.0689793 0.530065 0.0636386
435 1 0.216389 0.652867 0.025279
167 1 0.462876 0.412338 0.0792883
650 1 0.44987 0.493866 0.0597485
473 1 0.68649 0.53195 0.940401
1037 1 0.0900112 0.579932 0.00516159
1088 1 0.943822 0.67778 0.0688853
291 1 0.508342 0.486602 0.00500105
1828 1 0.698116 0.619589 0.939059
1255 1 0.927154 0.751329 0.0488361
1882 1 0.15004 0.62997 0.0527746
1048 1 0.575387 0.519949 0.017651
414 1 0.656414 0.706844 0.00665508
1420 1 0.754921 0.522954 0.139115
508 1 0.931057 0.641097 0.00404179
65 1 0.0109851 0.728871 0.0524689
1938 1 0.331004 0.640103 0.947614
1822 1 0.505092 0.612283 0.0320915
1993 1 0.554527 0.657054 0.964847
1070 1 0.869882 0.698655 0.0619154
941 1 0.904814 0.699628 0.13374
678 1 0.154538 0.790562 0.0706662
1744 1 0.435969 0.591841 0.0702048
410 1 0.654874 0.775293 0.917785
719 1 0.777671 0.771312 0.0371158
137 1 0.0626328 0.824466 0.945258
1081 1 0.466393 0.797863 0.972413
492 1 0.791423 0.759089 0.110897
1897 1 0.92179 0.951085 0.0336166
1291 1 0.10697 0.888989 0.0225366
1328 1 0.932759 0.891 0.996728
305 1 0.248937 0.833979 0.070248
493 1 0.434479 0.729854 0.988417
926 1 0.302147 0.79092 0.0214874
1589 1 0.445091 0.712393 0.91421
1971 1 0.605335 0.835805 0.0725992
109 1 0.229574 0.786625 0.00992018
1478 1 0.979861 0.946635 0.979215
1185 1 0.80544 0.960217 0.00230517
1077 1 0.0110426 0.994575 0.152444
84 1 0.0892395 0.978934 0.966582
1261 1 0.337733 0.877555 0.016839
866 1 0.417781 0.87529 0.0821052
1509 1 0.658429 0.795907 0.0390256
244 1 0.146055 0.0681169 0.0781492
889 1 0.290487 0.981134 0.0854549
116 1 0.557222 0.977942 0.0641729
1371 1 0.538148 0.893304 0.0693292
1694 1 0.653778 0.0533291 0.120415
1602 1 0.804546 0.920592 0.0841963
138 1 0.876856 0.89709 0.0718305
1832 1 0.345304 0.114092 0.0351011
1252 1 0.416557 0.0207211 0.143635
887 1 0.521904 0.100231 0.130339
11 1 0.765462 0.96679 0.141947
118 1 0.848842 0.994112 0.0672011
1932 1 0.15979 0.953668 0.00348649
1327 1 0.828455 0.0287502 0.148162
1947 1 0.0840119 0.163154 0.0426165
1562 1 0.301831 0.0910781 0.21944
1986 1 0.552191 0.0578095 0.0808591
304 1 0.773631 0.0654998 0.0882038
1999 1 0.0700073 0.280967 0.128145
1626 1 0.255531 0.235412 0.920293
287 1 0.456675 0.153903 0.109638
615 1 0.661884 0.0736454 0.00652549
1002 1 0.721618 0.163855 0.135667
40 1 0.920163 0.116427 0.0262252
566 1 0.543807 0.240472 0.0744892
107 1 0.478044 0.151272 0.0270793
708 1 0.587272 0.147891 0.969757
1465 1 0.729465 0.198307 0.0719362
2012 1 0.855906 0.132613 0.0738438
1653 1 0.979316 0.171655 0.0767315
1902 1 0.864825 0.0932091 0.189665
770 1 0.375103 0.23329 0.0895295
1530 1 0.0990029 0.215159 0.10673
697 1 0.425415 0.274136 0.206057
284 1 0.524998 0.229333 0.00347519
814 1 0.652457 0.231367 0.056322
1899 1 0.702895 0.0967622 0.0861246
2005 1 0.793567 0.229727 0.00377407
828 1 0.801994 0.109296 0.145033
1774 1 0.0872413 0.238009 0.00439293
1511 1 0.785997 0.325081 0.117347
1493 1 0.853149 0.29824 0.0993427
54 1 0.150434 0.388729 0.146697
1089 1 0.317259 0.300024 0.109777
1425 1 0.429233 0.346143 0.0871144
361 1 0.415759 0.26623 0.284485
360 1 0.63635 0.306169 0.0846356
2007 1 0.857425 0.2344 0.050378
904 1 0.968188 0.469639 0.035901
142 1 0.278448 0.449442 0.0907775
1250 1 0.312353 0.385149 0.204276
256 1 0.409566 0.418554 0.152094
746 1 0.480833 0.322419 0.2015
907 1 0.726115 0.422341 0.121949
372 1 0.88943 0.487186 0.932797
1513 1 0.991668 0.383003 0.114173
1008 1 0.22952 0.574157 0.942627
2021 1 0.190918 0.446338 0.0815276
1226 1 0.817454 0.555648 0.0575911
452 1 0.0457161 0.449657 0.0542852
1662 1 0.660586 0.509358 0.0238545
315 1 0.673865 0.494489 0.121323
563 1 0.748452 0.664041 0.0638977
885 1 0.823403 0.615892 0.112492
160 1 0.890552 0.583164 0.0608566
478 1 0.0421521 0.546719 0.958051
1195 1 0.263162 0.635844 0.967142
156 1 0.38432 0.537323 0.109079
1234 1 0.47235 0.376998 0.14098
791 1 0.734581 0.610482 0.113895
1193 1 0.888762 0.621925 0.151395
1788 1 0.987759 0.834449 0.136604
132 1 0.0402112 0.558637 0.13621
729 1 0.271945 0.631137 0.0698849
664 1 0.363256 0.607273 0.0852465
741 1 0.603755 0.507287 0.0951994
425 1 0.669842 0.593925 0.0278279
1182 1 0.0210848 0.747238 0.160794
1276 1 0.186976 0.64205 0.119727
1445 1 0.804951 0.698817 0.019036
894 1 0.882918 0.76332 0.104561
1093 1 0.0838304 0.748204 0.0610643
1642 1 0.281835 0.723719 0.0484385
1673 1 0.332378 0.79337 0.219422
1428 1 0.422735 0.623399 0.924051
696 1 0.617391 0.698744 0.0892206
490 1 0.715602 0.749381 0.990271
294 1 0.0448203 0.930393 0.00468625
238 1 0.957716 0.813304 0.074914
1958 1 0.15338 0.754621 0.175527
1917 1 0.420401 0.622873 0.00595564
49 1 0.368892 0.855039 0.943109
295 1 0.638648 0.776176 0.134807
1699 1 0.144972 0.809334 0.999378
1121 1 0.851109 0.824415 0.0614445
519 1 0.0554777 0.852578 0.159415
456 1 0.376757 0.800705 0.0779
104 1 0.561448 0.749703 0.0840386
1663 1 0.443546 0.882305 0.945426
950 1 0.728111 0.826577 0.0545062
1091 1 0.786426 0.835605 0.104623
505 1 0.999453 0.879166 0.0449351
937 1 0.133935 0.811508 0.895273
1084 1 0.285223 0.917761 0.145944
3 1 0.270178 0.965442 0.920811
1798 1 0.411784 0.953598 0.0839358
1891 1 0.0102984 0.015114 0.961219
444 1 0.989299 0.0566036 0.113461
761 1 0.324015 0.0394678 0.0118497
25 1 0.451194 0.94093 0.2539
642 1 0.546765 0.891555 0.988138
46 1 0.236769 0.971204 0.0247523
1548 1 0.212735 0.0201035 0.942357
1034 1 0.294498 0.944268 0.217909
140 1 0.580201 0.96163 0.198369
1313 1 0.72706 0.935527 0.0500469
776 1 0.853382 0.958518 0.134598
36 1 0.25441 0.129808 0.0746778
1137 1 0.386611 0.00759423 0.985219
248 1 0.468425 0.0740355 0.178599
1872 1 0.645534 0.949005 0.100212
1459 1 0.0446317 0.134603 0.212393
1100 1 0.0350986 0.232692 0.0743108
1463 1 0.13526 0.0986747 0.282465
933 1 0.409084 0.100829 0.123168
1175 1 0.525436 0.228272 0.149607
522 1 0.0767984 0.344614 0.166075
731 1 0.234921 0.155936 0.165728
685 1 0.268684 0.249785 0.128125
1188 1 0.648581 0.16713 0.0152192
1498 1 0.654421 0.162338 0.103946
1520 1 0.675026 0.114609 0.164001
1691 1 0.906647 0.181076 0.0920879
467 1 0.712624 0.0467525 0.168707
1022 1 0.239951 0.200637 0.0528446
373 1 0.297443 0.224798 0.19731
2027 1 0.317448 0.196329 0.060053
1581 1 0.517217 0.254967 0.280532
1423 1 0.971544 0.24238 0.139597
1033 1 0.00169119 0.156422 0.280494
1645 1 0.183868 0.240823 0.147937
738 1 0.277445 0.296243 0.0470271
1770 1 0.599196 0.169638 0.151104
1083 1 0.0730007 0.135655 0.137707
1588 1 0.0901208 0.322362 0.0532316
1495 1 0.234105 0.364742 0.184415
1864 1 0.494357 0.216992 0.214147
816 1 0.936149 0.134436 0.152186
1448 1 0.320872 0.356959 0.372794
598 1 0.6046 0.257058 0.140534
1344 1 0.709488 0.259667 0.111043
318 1 0.719614 0.3417 0.150327
713 1 0.865128 0.368129 0.112869
1675 1 0.837618 0.424158 0.180814
83 1 0.0604158 0.315154 0.96952
1353 1 0.0875543 0.4803 0.115207
349 1 0.252566 0.487667 0.264183
775 1 0.637776 0.448149 0.245359
1732 1 0.934182 0.343434 0.0851849
556 1 0.0189221 0.486868 0.118391
381 1 0.182565 0.534455 0.196968
1537 1 0.266707 0.614116 0.152796
690 1 0.493951 0.544026 0.147141
2022 1 0.876568 0.545973 0.13817
1101 1 0.927276 0.512574 0.211302
469 1 0.225557 0.482901 0.00274605
1375 1 0.321886 0.547522 0.165392
826 1 0.400203 0.515751 0.180993
975 1 0.220037 0.57258 0.0191893
1258 1 0.543613 0.48917 0.152887
1566 1 0.672468 0.654671 0.0679761
539 1 0.966755 0.56723 0.113194
655 1 0.983732 0.616854 0.0490132
143 1 0.307052 0.713934 0.198444
1856 1 0.525885 0.54703 0.0727352
125 1 0.843051 0.643963 0.209811
1886 1 0.966097 0.623524 0.166804
60 1 0.493217 0.625904 0.110248
1373 1 0.592467 0.593885 0.0406336
725 1 0.521112 0.724935 0.959567
1725 1 0.717368 0.730265 0.068972
1061 1 0.910521 0.686405 0.225326
144 1 0.889815 0.829246 0.994568
1201 1 0.234088 0.783816 0.120492
450 1 0.686217 0.745708 0.198096
261 1 0.86752 0.732308 0.18724
597 1 0.79001 0.863791 0.260723
633 1 0.212838 0.894696 0.220429
307 1 0.32928 0.61377 0.0172917
1613 1 0.507061 0.754654 0.023496
1473 1 0.881532 0.706483 0.984088
1462 1 0.914511 0.787964 0.164534
618 1 0.153754 0.917243 0.174294
1943 1 0.210109 0.919592 0.951721
1599 1 0.217627 0.894196 0.0207606
545 1 0.276422 0.834141 0.251183
1218 1 0.359137 0.539801 0.0376358
1323 1 0.581196 0.796688 0.989625
627 1 0.154753 0.834949 0.153799
463 1 0.420666 0.768837 0.145972
1454 1 0.568477 0.914702 0.14064
369 1 0.846078 0.80839 0.150758
1099 1 0.0838023 0.953545 0.0673139
617 1 0.323594 0.867305 0.105403
1441 1 0.489998 0.952444 0.185226
1920 1 0.709535 0.820347 0.130469
1550 1 0.792773 0.870556 0.187356
541 1 0.0795598 0.0251604 0.101236
1767 1 0.175461 0.0789928 0.951934
1885 1 0.930255 0.943293 0.139538
1325 1 0.22439 0.0230411 0.0911612
2032 1 0.352984 0.980765 0.183284
1660 1 0.6698 0.974759 0.164444
1540 1 0.70894 0.909986 0.138499
1903 1 0.926492 0.0186662 0.0642639
1169 1 0.066184 0.0554042 0.180133
42 1 0.114347 0.108845 0.210732
778 1 0.169131 0.0618 0.202425
1174 1 0.35086 0.058546 0.150312
1385 1 0.502329 0.0799973 0.0308425
1867 1 0.541209 0.170621 0.100547
341 1 0.85567 0.1426 0.242492
548 1 0.176634 0.125614 0.120041
1777 1 0.303896 0.161805 0.121646
59 1 0.365856 0.267996 0.159736
1208 1 0.373629 0.157234 0.180264
1721 1 0.455875 0.14477 0.207839
400 1 0.585156 0.0755076 0.164047
344 1 0.995926 0.201113 0.209578
408 1 0.654139 0.108726 0.233836
1094 1 0.942896 0.116426 0.238684
1128 1 0.403803 0.0649808 0.211538
721 1 0.453491 0.221947 0.0767727
1559 1 0.913476 0.143602 0.308516
978 1 0.0149712 0.348589 0.0449459
1601 1 0.384766 0.393314 0.267353
262 1 0.341901 0.282141 0.239523
1729 1 0.567257 0.232779 0.217781
1907 1 0.674703 0.288457 0.18097
2025 1 0.792454 0.254255 0.102004
1040 1 0.035448 0.210206 0.143102
6 1 0.149423 0.330198 0.186108
352 1 0.158431 0.472777 0.153102
230 1 0.657541 0.391953 0.160586
1354 1 0.749693 0.272632 0.185584
1389 1 0.013811 0.365457 0.223702
453 1 0.384813 0.157124 0.0806698
88 1 0.0171467 0.615968 0.217743
772 1 0.0628723 0.490885 0.185837
1702 1 0.380822 0.462641 0.22871
225 1 0.540594 0.411727 0.13163
1356 1 0.601485 0.352104 0.176133
959 1 0.855934 0.266612 0.165274
1868 1 0.957559 0.452495 0.17636
922 1 0.367061 0.492986 0.296904
980 1 0.760467 0.410274 0.187675
982 1 0.812837 0.419043 0.102271
935 1 0.0310803 0.553777 0.269007
878 1 0.00039726 0.550365 0.19356
200 1 0.311295 0.531314 0.23313
542 1 0.618123 0.503873 0.169606
1127 1 0.667386 0.447074 0.0660708
359 1 0.108383 0.73133 0.242663
1669 1 0.186606 0.607099 0.194136
1256 1 0.299848 0.557277 0.0825967
1367 1 0.741281 0.508072 0.222408
1152 1 0.931732 0.529696 0.313337
206 1 0.0235569 0.676083 0.135124
231 1 0.203274 0.571997 0.11005
434 1 0.461579 0.721499 0.194229
1941 1 0.709627 0.686989 0.137064
511 1 0.57783 0.699053 0.020212
1280 1 0.647276 0.709135 0.252987
1028 1 0.826212 0.560851 0.197933
368 1 0.0161649 0.700074 0.223878
842 1 0.469686 0.713578 0.118608
974 1 0.822592 0.691202 0.135269
1074 1 0.972494 0.68048 0.280795
1085 1 0.966954 0.739694 0.109738
599 1 0.146994 0.66705 0.217904
1869 1 0.201537 0.71754 0.0633535
1500 1 0.439688 0.587304 0.146177
622 1 0.345638 0.6926 0.284132
1113 1 0.37534 0.723935 0.0515674
604 1 0.689316 0.661009 0.205749
1102 1 0.769376 0.640021 0.169712
24 1 0.688456 0.811623 0.237913
1095 1 0.96675 0.757307 0.212355
1229 1 0.220138 0.717252 0.160922
220 1 0.338681 0.721666 0.124704
302 1 0.460511 0.8218 0.217683
288 1 0.11382 0.87098 0.108611
1759 1 0.989216 0.965264 0.0782303
1437 1 0.308749 0.79428 0.0997529
1610 1 0.554256 0.842457 0.123969
488 1 0.75747 0.745333 0.174975
1297 1 0.75515 0.812941 0.208421
149 1 0.919326 0.894537 0.194468
847 1 0.34626 0.853556 0.271828
1320 1 0.490873 0.827218 0.0359634
1521 1 0.719912 0.90128 0.276374
1230 1 0.93377 0.876783 0.112327
460 1 0.128523 0.907989 0.954545
430 1 0.363806 0.819436 0.149234
1096 1 0.47948 0.905459 0.125281
777 1 0.864357 0.880927 0.14082
1807 1 0.21178 0.916741 0.115356
164 1 0.283217 0.997686 0.158733
1973 1 0.233504 0.958021 0.30541
92 1 0.495841 0.021915 0.127215
1605 1 0.664332 0.880905 0.0599812
303 1 0.840039 0.904027 0.228619
366 1 0.124656 0.989809 0.179189
1727 1 0.177576 0.924183 0.278763
555 1 0.27967 0.00550371 0.25169
1196 1 0.576525 0.922396 0.315602
1020 1 0.695669 0.968339 0.242301
914 1 0.749862 0.981853 0.294862
1687 1 0.839888 0.119357 0.311356
127 1 0.950494 0.0429146 0.311744
1757 1 0.106139 0.0331514 0.242834
300 1 0.436719 0.113625 0.279115
1301 1 0.412391 0.202726 0.244416
862 1 0.547513 0.0241561 0.275002
890 1 0.5358 0.0291493 0.194268
795 1 0.721512 0.0886792 0.264969
2015 1 0.645387 0.0393021 0.204957
1393 1 0.797387 0.077045 0.277013
1376 1 0.0934705 0.243226 0.278467
165 1 0.198605 0.150048 0.254937
549 1 0.236441 0.0921964 0.265755
1184 1 0.582702 0.140507 0.250636
276 1 0.774216 0.12212 0.210845
1079 1 0.226549 0.212375 0.230931
1773 1 0.371682 0.126824 0.246082
474 1 0.343871 0.196728 0.259347
1741 1 0.715713 0.18272 0.21019
1279 1 0.144786 0.195444 0.1962
524 1 0.29191 0.296442 0.182478
267 1 0.704853 0.302373 0.256537
712 1 0.657162 0.292969 0.315992
1450 1 0.959984 0.332534 0.160499
1479 1 0.0221489 0.229067 0.280264
134 1 0.0502737 0.276067 0.204118
829 1 0.232278 0.309107 0.249127
1954 1 0.428214 0.342251 0.294582
1466 1 0.513245 0.385074 0.223837
1778 1 0.832647 0.217267 0.2168
779 1 0.896014 0.362257 0.331121
1416 1 0.100527 0.4951 0.00716415
1228 1 0.168543 0.474955 0.243614
1796 1 0.252868 0.535873 0.161893
1748 1 0.4452 0.476839 0.288023
422 1 0.530016 0.149836 0.186737
418 1 0.715801 0.428937 0.27164
852 1 0.898206 0.432401 0.302586
504 1 0.234235 0.336234 0.340572
1240 1 0.464934 0.291527 0.133387
1764 1 0.063828 0.390724 0.102604
1853 1 0.0286046 0.428127 0.265799
1350 1 0.389618 0.54448 0.243839
427 1 0.540582 0.421548 0.314953
41 1 0.598714 0.432801 0.0522363
1068 1 0.918977 0.391921 0.153045
17 1 0.098539 0.607987 0.109577
546 1 0.139353 0.539701 0.134246
1894 1 0.304207 0.434159 0.278916
550 1 0.337691 0.5641 0.299484
649 1 0.560003 0.558754 0.18888
442 1 0.761049 0.435854 0.360604
105 1 0.620816 0.44276 0.122981
322 1 0.822693 0.498705 0.10561
578 1 0.0581668 0.599696 0.332731
568 1 0.089765 0.693339 0.168158
801 1 0.352139 0.649181 0.156873
583 1 0.538682 0.674694 0.147628
1528 1 0.623736 0.673167 0.159366
787 1 0.65045 0.584278 0.103011
257 1 0.950303 0.577122 0.240597
68 1 0.132939 0.631952 0.309285
1639 1 0.133723 0.694152 0.101624
97 1 0.2781 0.683271 0.123373
1560 1 0.839833 0.470197 0.33006
1965 1 0.248154 0.774019 0.223521
355 1 0.260383 0.583597 0.21727
1624 1 0.405562 0.675833 0.0974952
2002 1 0.708936 0.77792 0.327954
1013 1 0.782406 0.549288 0.279092
1492 1 0.198361 0.714758 0.264848
1852 1 0.320976 0.750587 0.357946
765 1 0.72543 0.7213 0.255165
177 1 0.270652 0.711799 0.288461
1570 1 0.420056 0.811107 0.302587
1245 1 0.564316 0.646009 0.0888428
1377 1 0.571118 0.72799 0.277385
283 1 0.788659 0.686378 0.335402
1835 1 0.0866253 0.929016 0.147211
930 1 0.179164 0.857786 0.078443
1555 1 0.413193 0.873184 0.246644
1363 1 0.489156 0.806795 0.111885
530 1 0.966868 0.830965 0.216468
241 1 0.109933 0.891751 0.313758
1587 1 0.231967 0.830003 0.175512
1107 1 0.430195 0.857318 0.152177
654 1 0.625917 0.785066 0.260474
159 1 0.0875752 0.764889 0.134996
641 1 0.149892 0.710201 0.329334
280 1 0.53812 0.898316 0.206966
285 1 0.601491 0.998704 0.139337
1355 1 0.887499 0.827906 0.228062
1015 1 0.0701591 0.969305 0.360511
1646 1 0.142606 0.989573 0.085433
634 1 0.202935 0.976801 0.156994
705 1 0.188978 0.979562 0.229903
437 1 0.591428 0.854402 0.274717
854 1 0.880335 0.0710756 0.272184
1743 1 0.926759 0.0412532 0.168443
1988 1 0.114116 0.0940415 0.352765
609 1 0.161914 0.0200841 0.452692
560 1 0.130784 0.934145 0.379415
1045 1 0.194575 0.970049 0.362459
100 1 0.368044 0.934468 0.254675
608 1 0.637018 0.874297 0.136815
271 1 0.182166 0.0330913 0.296071
401 1 0.350159 0.0882871 0.311752
1038 1 0.410638 0.931685 0.174767
270 1 0.623285 0.993133 0.263839
482 1 0.129261 0.984829 0.312415
1647 1 0.142223 0.0883786 0.46119
1321 1 0.28149 0.255163 0.276259
1168 1 0.521005 0.0880909 0.235888
681 1 0.478117 0.0195858 0.253918
1546 1 0.79909 0.061025 0.351524
1519 1 0.893953 0.183238 0.184425
282 1 0.240028 0.0541548 0.182338
1821 1 0.495941 0.161642 0.279706
431 1 0.198732 0.119995 0.359153
1949 1 0.311126 0.197138 0.344675
1151 1 0.512813 0.353065 0.299758
1287 1 0.646273 0.176588 0.223502
233 1 0.700671 0.182174 0.36096
1444 1 0.841011 0.264637 0.348309
129 1 0.820749 0.111991 0.398093
1634 1 0.944588 0.199495 0.265359
461 1 0.343582 0.309194 0.30752
1358 1 0.42835 0.22693 0.152822
628 1 0.667591 0.210933 0.160028
931 1 0.780145 0.179413 0.266483
412 1 0.964379 0.273988 0.220018
1848 1 0.218054 0.314762 0.136454
831 1 0.632185 0.375058 0.24563
1223 1 0.622981 0.27313 0.227354
979 1 0.776001 0.198127 0.172602
1016 1 0.945802 0.338415 0.274482
278 1 0.0893123 0.388147 0.30565
1994 1 0.229608 0.398193 0.261281
947 1 0.307567 0.435668 0.353601
1684 1 0.578466 0.494585 0.47912
753 1 0.524673 0.45435 0.252455
1277 1 0.70353 0.373873 0.227084
353 1 0.775944 0.256884 0.416847
1556 1 0.160556 0.369435 0.249111
1298 1 0.447326 0.426287 0.211594
1103 1 0.574718 0.434594 0.196799
1997 1 0.563448 0.313936 0.228828
1047 1 0.689488 0.398772 0.375468
1968 1 0.886635 0.290905 0.22861
792 1 0.111089 0.535064 0.21729
411 1 0.380989 0.406601 0.353247
1115 1 0.821426 0.337509 0.187395
573 1 0.975891 0.49437 0.271998
1851 1 0.233683 0.476183 0.367979
577 1 0.384388 0.623155 0.290586
1635 1 0.695546 0.4581 0.177872
2024 1 0.83958 0.494571 0.255588
347 1 0.0399867 0.477551 0.318963
1812 1 0.212316 0.540422 0.298073
763 1 0.593279 0.512967 0.23948
466 1 0.730117 0.580869 0.185804
1996 1 0.848465 0.380312 0.242027
1129 1 0.338867 0.607489 0.238507
152 1 0.449032 0.568554 0.284166
1273 1 0.485386 0.514534 0.219634
643 1 0.634291 0.638305 0.314246
1547 1 0.86258 0.43269 0.395121
7 1 0.0849403 0.597502 0.251053
249 1 0.29566 0.631033 0.29941
1181 1 0.57763 0.632495 0.218295
1678 1 0.632047 0.592612 0.172345
1655 1 0.87868 0.64649 0.280998
1433 1 0.887283 0.55183 0.261224
1341 1 0.060155 0.65995 0.27658
494 1 0.524691 0.74853 0.1549
2048 1 0.645346 0.690464 0.384801
1170 1 0.988229 0.709478 0.354435
1063 1 0.0384684 0.777932 0.243711
1690 1 0.226682 0.646197 0.301617
171 1 0.27837 0.807333 0.328803
76 1 0.489712 0.871401 0.269786
742 1 0.805023 0.621444 0.284295
172 1 0.187165 0.597781 0.339826
860 1 0.0929001 0.796289 0.200106
767 1 0.17066 0.84415 0.315908
789 1 0.544457 0.809776 0.196208
918 1 0.783109 0.889051 0.333939
630 1 0.767053 0.775463 0.282509
1618 1 0.970722 0.639834 0.3661
912 1 0.317891 0.850878 0.408576
1800 1 0.377187 0.728135 0.219518
764 1 0.331035 0.97676 0.300892
1369 1 0.459002 0.0204485 0.420245
4 1 0.500354 0.914232 0.324965
1845 1 0.0372333 0.856148 0.235099
1442 1 0.0883352 0.926453 0.218169
534 1 0.203867 0.77318 0.303445
184 1 0.365077 0.0163778 0.359337
1162 1 0.411804 0.0308842 0.289942
1970 1 0.669351 0.843239 0.303672
1542 1 0.782753 0.957505 0.233676
432 1 0.0358713 0.919827 0.271877
1275 1 0.0451086 0.985833 0.231922
293 1 0.429092 0.0884407 0.379745
215 1 0.127069 0.866233 0.237143
468 1 0.107893 0.182321 0.446396
1789 1 0.778083 0.0309172 0.219056
1263 1 0.881797 0.0628253 0.351745
1014 1 0.985784 0.0482392 0.217794
1432 1 0.943555 0.939752 0.438741
224 1 0.183967 0.0438932 0.379301
1650 1 0.257673 0.0281802 0.33597
562 1 0.526189 0.95466 0.257902
973 1 0.608018 0.06941 0.277333
324 1 0.376484 0.225638 0.397902
1051 1 0.515062 0.20685 0.333383
1883 1 0.743518 0.13055 0.323546
512 1 0.842244 0.0391571 0.422781
893 1 0.0181987 0.0828493 0.273589
358 1 0.671185 0.145982 0.298377
1405 1 0.817993 0.166977 0.546455
122 1 0.976094 0.117019 0.336801
1447 1 0.0516049 0.269245 0.337116
298 1 0.0654674 0.201202 0.34115
1147 1 0.235402 0.17756 0.31849
1130 1 0.260437 0.264021 0.378058
1617 1 0.107864 0.435074 0.193315
148 1 0.170217 0.265109 0.256862
1677 1 0.0969956 0.33002 0.242031
733 1 0.333126 0.374966 0.488724
343 1 0.598535 0.340112 0.304759
367 1 0.770936 0.359526 0.276391
1910 1 0.68481 0.224415 0.295078
439 1 0.850288 0.270239 0.454418
939 1 0.970801 0.415613 0.317327
1431 1 0.177568 0.451273 0.315827
1813 1 0.495485 0.473175 0.34525
1145 1 0.751952 0.333495 0.357684
2004 1 0.168663 0.431295 0.394718
1977 1 0.184526 0.283722 0.378102
2045 1 0.462223 0.410781 0.325747
189 1 0.649886 0.420602 0.312606
527 1 0.0918325 0.462653 0.264865
1841 1 0.52742 0.580683 0.25172
1339 1 0.670396 0.51886 0.226911
954 1 0.784694 0.447129 0.25376
1186 1 0.931113 0.401547 0.229032
1487 1 0.155397 0.58028 0.258808
337 1 0.103303 0.51383 0.314364
1990 1 0.440779 0.520446 0.348681
312 1 0.472345 0.471745 0.150909
1471 1 0.600083 0.582423 0.272032
2020 1 0.691978 0.53568 0.309792
1679 1 0.843205 0.328925 0.291341
1073 1 0.905836 0.607734 0.351533
820 1 0.375345 0.484523 0.391359
390 1 0.629911 0.493623 0.313096
1794 1 0.837818 0.639831 0.368052
371 1 0.200413 0.671813 0.383335
1132 1 0.24696 0.667951 0.217794
785 1 0.552122 0.635973 0.291634
33 1 0.822017 0.396022 0.329449
181 1 0.413983 0.662178 0.2158
403 1 0.523284 0.68882 0.237076
1434 1 0.677161 0.619174 0.512187
71 1 0.961427 0.783608 0.379589
455 1 0.282487 0.669094 0.368672
1219 1 0.356165 0.681139 0.366613
416 1 0.598247 0.734594 0.189549
1802 1 0.617048 0.897677 0.417097
813 1 0.820818 0.772846 0.232917
1009 1 0.93295 0.742936 0.275758
1200 1 0.196509 0.821705 0.415944
1456 1 0.419887 0.719703 0.291789
834 1 0.353613 0.825558 0.348018
1929 1 0.507558 0.761761 0.345713
269 1 0.232493 0.878195 0.364578
387 1 0.288348 0.909746 0.282344
1785 1 0.525631 0.812801 0.289785
77 1 0.186589 0.821218 0.237939
1398 1 0.0924431 0.823445 0.344376
1411 1 0.434483 0.838845 0.458444
2029 1 0.749746 0.830721 0.403175
314 1 0.820805 0.839354 0.372641
213 1 0.240583 0.0267861 0.520016
1713 1 0.401044 0.870239 0.392039
669 1 0.61388 0.858674 0.352775
727 1 0.710081 0.880433 0.203426
1685 1 0.0351125 0.900224 0.102644
173 1 0.334304 0.00333384 0.426347
1247 1 0.384017 0.906654 0.330994
821 1 0.408964 0.967036 0.415639
1062 1 0.506494 0.985571 0.367343
1424 1 0.641603 0.904714 0.237391
1693 1 0.86861 0.987785 0.201318
1336 1 0.932087 0.968045 0.234464
531 1 0.255149 0.023556 0.415312
822 1 0.209909 0.0881038 0.433477
207 1 0.287026 0.124521 0.312814
1160 1 0.361581 0.13166 0.474073
928 1 0.504697 0.123224 0.441006
471 1 0.455493 0.147565 0.342179
1901 1 0.698312 0.0580115 0.394324
2016 1 0.782894 0.991079 0.401855
1775 1 0.000669653 0.927269 0.186268
657 1 0.192887 0.189889 0.394205
848 1 0.574273 0.205008 0.38227
932 1 0.477724 0.0585514 0.316022
1824 1 0.0319156 0.0546553 0.337925
1199 1 0.125775 0.172697 0.37189
1268 1 0.275511 0.163088 0.254441
961 1 0.577023 0.128878 0.389683
151 1 0.851459 0.202493 0.285993
350 1 0.0209827 0.0275541 0.41241
1120 1 0.125638 0.172278 0.271801
1125 1 0.311168 0.307109 0.529332
1269 1 0.32987 0.240186 0.483258
1337 1 0.342754 0.135911 0.366728
320 1 0.581376 0.283205 0.34311
1913 1 0.721913 0.210009 0.450322
21 1 0.858384 0.093749 0.466029
605 1 0.0723886 0.128793 0.303374
1921 1 0.38885 0.205041 0.315572
1810 1 0.76279 0.278395 0.29719
197 1 0.7926 0.173423 0.451992
375 1 0.898064 0.277284 0.301901
1840 1 0.976384 0.194019 0.361845
603 1 0.0249778 0.341779 0.293648
1211 1 0.223476 0.270942 0.316568
1430 1 0.288357 0.353756 0.284443
407 1 0.252303 0.270781 0.495873
784 1 0.514327 0.273986 0.37007
955 1 0.603782 0.215618 0.300202
1140 1 0.71652 0.251752 0.372098
424 1 0.440809 0.26626 0.359348
102 1 0.599393 0.396307 0.358825
48 1 0.529767 0.369648 0.379709
1316 1 0.727226 0.264881 0.501955
2013 1 0.922215 0.30574 0.369591
1342 1 0.901941 0.211372 0.34441
1736 1 0.971624 0.268071 0.320921
1417 1 0.1177 0.311573 0.31484
186 1 0.456434 0.340831 0.381632
1900 1 0.946669 0.418691 0.437285
292 1 0.236684 0.405445 0.336538
766 1 0.699565 0.359787 0.303515
1839 1 0.814727 0.286396 0.241645
1400 1 0.027363 0.447651 0.389699
1708 1 0.236563 0.537211 0.41342
581 1 0.259915 0.419677 0.405889
1236 1 0.717279 0.640893 0.280431
1951 1 0.83937 0.344834 0.377213
794 1 0.947984 0.462415 0.370699
949 1 0.364528 0.6672 0.477797
1505 1 0.343844 0.622408 0.417048
1586 1 0.509725 0.461635 0.486758
1440 1 0.57543 0.613579 0.381149
1723 1 0.168849 0.567726 0.43614
1870 1 0.00783335 0.679323 0.418062
1194 1 0.273753 0.581792 0.346797
1123 1 0.360588 0.593401 0.48292
1387 1 0.494525 0.62336 0.194189
180 1 0.957436 0.600024 0.44192
782 1 0.0587612 0.513563 0.382741
1598 1 0.106266 0.577165 0.387605
396 1 0.46154 0.663751 0.31062
217 1 0.498443 0.56283 0.418956
15 1 0.520158 0.559619 0.34848
1368 1 0.790818 0.694597 0.217009
755 1 0.365138 0.565138 0.372974
621 1 0.713901 0.696837 0.335928
913 1 0.851521 0.721582 0.278323
423 1 0.895249 0.52999 0.375129
614 1 0.989252 0.546025 0.354248
520 1 0.0709394 0.668906 0.366327
255 1 0.267584 0.618359 0.431722
1697 1 0.379564 0.792799 0.409675
354 1 0.501631 0.70085 0.403521
57 1 0.844355 0.821168 0.289877
240 1 0.893666 0.84184 0.39431
1476 1 0.116025 0.75712 0.379387
1267 1 0.434875 0.602489 0.35915
1967 1 0.435362 0.916759 0.461842
1338 1 0.57951 0.701647 0.41472
668 1 0.76487 0.753433 0.375219
309 1 0.890868 0.689476 0.359705
730 1 0.92779 0.911224 0.372525
1558 1 0.448918 0.801196 0.387485
1198 1 0.677986 0.904682 0.368107
1060 1 0.932913 0.832849 0.307212
113 1 0.126479 0.796273 0.279657
1969 1 0.355406 0.778462 0.289395
1412 1 0.305274 0.772804 0.42349
1529 1 0.433617 0.981219 0.344124
281 1 0.715639 0.9742 0.36197
1944 1 0.050657 0.731831 0.309203
50 1 0.990486 0.955341 0.383652
260 1 0.209568 0.935566 0.426901
1138 1 0.302508 0.0592721 0.47078
1460 1 0.36609 0.0869114 0.415105
351 1 0.476526 0.875294 0.38738
740 1 0.513785 0.964393 0.450044
139 1 0.772344 0.915606 0.428644
824 1 0.00701108 0.991792 0.30878
1165 1 0.60461 0.854275 0.196575
509 1 0.567721 0.0215231 0.479789
1862 1 0.111299 0.0305663 0.389972
161 1 0.281535 0.956597 0.375153
433 1 0.306305 0.188566 0.435353
832 1 0.604726 0.0296514 0.339461
969 1 0.835552 0.990665 0.292696
906 1 0.0460008 0.960605 0.441061
863 1 0.303564 0.0669389 0.373333
1343 1 0.392851 0.205781 0.466111
222 1 0.634671 0.175005 0.435636
370 1 0.0724838 0.113671 0.458024
23 1 0.118244 0.247366 0.373797
131 1 0.264098 0.152421 0.385297
687 1 0.599527 0.147654 0.31964
1674 1 0.783352 0.21754 0.342347
1283 1 0.923089 0.0651292 0.438534
264 1 0.171928 0.165672 0.48274
1991 1 0.43179 0.0900969 0.455712
1046 1 0.54751 0.0938986 0.312984
2000 1 0.0342133 0.161707 0.400203
661 1 0.493374 0.195533 0.404222
1494 1 0.585725 0.359731 0.429681
5 1 0.661773 0.318371 0.393755
1629 1 0.659304 0.194614 0.504775
1630 1 0.913021 0.214285 0.418414
385 1 0.967344 0.125747 0.553266
1112 1 0.343389 0.35946 0.575416
1296 1 0.867238 0.279871 0.542657
1887 1 0.154442 0.366863 0.356242
963 1 0.335667 0.418194 0.418412
748 1 0.568042 0.463012 0.405457
1963 1 0.551781 0.472167 0.552013
51 1 0.662941 0.328825 0.500495
301 1 0.22244 0.332496 0.432956
805 1 0.638037 0.456138 0.380044
1457 1 0.883873 0.354867 0.511224
70 1 0.0169212 0.32008 0.374491
1253 1 0.116317 0.516579 0.435172
756 1 0.130793 0.36344 0.525743
13 1 0.21471 0.471599 0.464293
1220 1 0.552642 0.38322 0.499139
817 1 0.632696 0.411885 0.45938
819 1 0.709485 0.359036 0.448636
998 1 0.740552 0.342905 0.518787
1392 1 0.107212 0.453991 0.355333
682 1 0.166714 0.510737 0.509199
1489 1 0.301059 0.504781 0.323843
553 1 0.303742 0.50363 0.414415
188 1 0.550598 0.51884 0.294433
1331 1 0.674282 0.520178 0.394509
1135 1 0.0217147 0.434163 0.506733
323 1 0.234221 0.535993 0.570518
1861 1 0.205235 0.384359 0.547813
1925 1 0.401938 0.393085 0.433074
1524 1 0.628145 0.562644 0.342878
193 1 0.670645 0.59337 0.25101
1640 1 0.764433 0.545763 0.352524
402 1 0.287538 0.456411 0.471357
2026 1 0.44923 0.680906 0.522512
133 1 0.708258 0.574787 0.457393
895 1 0.0972427 0.713303 0.443934
1606 1 0.520769 0.697379 0.480919
376 1 0.422072 0.718212 0.370176
1704 1 0.556293 0.773465 0.590983
242 1 0.742027 0.575629 0.519899
19 1 0.79706 0.622374 0.447526
1761 1 0.838487 0.560902 0.330713
1793 1 0.505966 0.631468 0.365137
510 1 0.896835 0.639454 0.419781
462 1 0.242125 0.714145 0.440558
1746 1 0.236897 0.803216 0.57895
1266 1 0.457495 0.812813 0.555137