ITEM: TIMESTEP
100000
ITEM: NUMBER OF ATOMS
2048
ITEM: BOX BOUNDS pp pp pp
0.0000000000000000e+00 1.2699208415745595e+01
0.0000000000000000e+00 1.2699208415745595e+01
0.0000000000000000e+00 1.2699208415745595e+01
ITEM: ATOMS id type xs ys zs
1067 1 0.0508531 0.903148 0.0271591
868 1 0.311701 0.95603 0.120532
913 1 0.441432 0.0669042 0.025992
988 1 0.620827 0.0122964 0.00179845
926 1 0.646369 0.954591 0.054943
1035 1 0.872153 0.956028 0.0168398
1217 1 0.0285785 0.987318 0.0660203
204 1 0.111894 0.00744633 0.0224025
941 1 0.372439 0.0898796 0.0600411
1745 1 0.41907 0.17119 0.0628805
1628 1 0.446706 0.0919438 0.100201
794 1 0.688958 0.166044 0.96129
428 1 0.857045 0.947571 0.941233
592 1 0.917099 0.905236 0.98303
1143 1 0.224126 0.00283981 0.00535838
1845 1 0.246514 0.931589 0.998516
174 1 0.43726 0.226469 0.014809
1539 1 0.858405 0.155704 0.00993057
1903 1 0.155452 0.0794089 0.998599
1621 1 0.27361 0.0538534 0.0554215
1895 1 0.274519 0.231156 0.0411471
139 1 0.364059 0.378869 0.978301
1830 1 0.585428 0.0807861 0.0444818
1955 1 0.550998 0.179512 0.983015
1668 1 0.741141 0.227563 0.922463
1843 1 0.962368 0.0449751 0.982589
1696 1 0.128924 0.204079 0.983713
1413 1 0.226819 0.18434 0.0926434
1278 1 0.206432 0.201993 0.990236
1001 1 0.51502 0.240093 0.0101798
1576 1 0.821696 0.20523 0.0964167
1479 1 0.972445 0.24326 0.948488
759 1 0.249293 0.271039 0.983255
962 1 0.398063 0.442201 0.09935
130 1 0.52786 0.319064 0.0292632
360 1 0.862004 0.237217 0.0163116
1637 1 0.127656 0.348151 0.951191
1227 1 0.402445 0.532269 0.0170444
223 1 0.422523 0.44164 0.00910234
561 1 0.50691 0.287961 0.87694
1728 1 0.705188 0.432751 0.144464
1383 1 0.911186 0.40876 0.107377
227 1 0.0107913 0.308398 0.92279
1318 1 0.110181 0.364339 0.10349
1069 1 0.223507 0.346671 0.0299763
1509 1 0.752653 0.33867 0.00829319
900 1 0.811565 0.370439 0.0640629
1825 1 0.139084 0.355907 0.0271112
1248 1 0.983105 0.298614 0.135613
2036 1 0.161813 0.51095 0.945477
301 1 0.33458 0.536697 0.979273
1460 1 0.45488 0.376763 0.0488497
2007 1 0.671359 0.53049 0.00282924
776 1 0.741313 0.415076 0.0291917
1998 1 0.87271 0.48274 0.0847038
877 1 0.288905 0.505047 0.122153
1399 1 0.303471 0.430832 0.105213
376 1 0.502622 0.566605 0.0918598
1039 1 0.970279 0.436504 0.961294
7 1 0.882823 0.549084 0.0240935
1097 1 0.980034 0.533001 0.000907376
1310 1 0.0577436 0.420803 0.104739
1529 1 0.131657 0.434693 0.0881304
1457 1 0.17903 0.537136 0.0720348
1772 1 0.592221 0.513585 0.0486922
2014 1 0.854114 0.55891 0.951999
1575 1 0.098534 0.528082 0.0926118
1911 1 0.123595 0.60497 0.0448426
872 1 0.226882 0.606265 0.0464848
1313 1 0.394095 0.700276 0.0120643
1093 1 0.789789 0.637894 0.072101
1977 1 0.903648 0.658926 0.995216
1332 1 0.962386 0.705584 0.9766
1617 1 0.236867 0.678783 0.984859
530 1 0.294717 0.629003 0.0355686
1555 1 0.374478 0.612211 0.0189755
1814 1 0.658701 0.562467 0.0822823
446 1 0.997795 0.770276 0.0559302
622 1 0.183121 0.701813 0.0870642
681 1 0.444941 0.738811 0.0762258
215 1 0.546543 0.656841 0.194717
1584 1 0.428235 0.8134 0.135464
513 1 0.66153 0.701033 0.034134
1277 1 0.755397 0.789185 0.0289904
1837 1 0.419239 0.899993 0.990452
1353 1 0.584488 0.717932 0.0332564
667 1 0.858779 0.8768 0.906378
340 1 0.312015 0.768378 0.10462
597 1 0.153055 0.910264 0.166429
274 1 0.636616 0.80826 0.0557184
1255 1 0.857415 0.801066 0.0557175
367 1 0.912286 0.825344 0.983267
1507 1 0.996411 0.904199 0.964668
570 1 0.0866549 0.84005 0.966216
1416 1 0.387364 0.941702 0.0557175
179 1 0.475173 0.931041 0.0542372
2017 1 0.636407 0.852289 0.982441
709 1 0.706462 0.852922 0.944359
1776 1 0.392839 0.96797 0.959768
112 1 0.808366 0.00603624 0.944536
654 1 0.186398 0.943721 0.0509959
1261 1 0.38765 0.0596457 0.137316
1341 1 0.763685 0.950497 0.122412
1203 1 0.835994 0.00166302 0.0988066
152 1 0.825448 0.0813315 0.0325329
1823 1 0.361779 0.0266529 0.00577741
1275 1 0.614574 0.146547 0.969896
1881 1 0.680833 0.0416332 0.175319
1309 1 0.947581 0.00656991 0.10535
1770 1 0.304928 0.145467 0.0532253
1438 1 0.506273 0.0368732 0.0588769
958 1 0.647456 0.112918 0.0856311
1794 1 0.718394 0.0964822 0.0248564
265 1 0.787373 0.137734 0.0492019
923 1 0.185853 0.0651002 0.156452
411 1 0.368651 0.13573 0.130393
950 1 0.703729 0.249385 0.00268811
613 1 0.775584 0.18023 0.984247
1431 1 0.0225082 0.16248 0.117535
781 1 0.292939 0.318007 0.0932772
183 1 0.369116 0.300361 0.0939731
2009 1 0.435496 0.2675 0.167388
1803 1 0.690232 0.175957 0.0392356
799 1 0.747121 0.162782 0.122015
1017 1 0.985662 0.2341 0.0889496
1082 1 0.974988 0.166783 0.974836
1719 1 0.182177 0.0444155 0.07073
1733 1 0.449395 0.350513 0.258482
869 1 0.609972 0.288303 0.0084873
546 1 0.493733 0.14855 0.0722013
774 1 0.212102 0.326896 0.104339
903 1 0.359323 0.389882 0.0591305
425 1 0.445705 0.352087 0.976317
1338 1 0.741534 0.250995 0.18979
1708 1 0.853249 0.343762 0.12342
713 1 0.0643171 0.302447 0.978933
618 1 0.0686124 0.226031 0.107119
28 1 0.236565 0.382302 0.15281
1889 1 0.345962 0.47269 0.17361
399 1 0.43648 0.511118 0.122811
1113 1 0.521883 0.377617 0.115171
980 1 0.737876 0.360086 0.0862826
676 1 0.129145 0.294761 0.127485
919 1 0.264306 0.536519 0.0548193
1513 1 0.359443 0.50628 0.0997586
31 1 0.702451 0.482009 0.0603456
843 1 0.925832 0.459604 0.03174
1620 1 0.0942122 0.406244 0.993747
1019 1 0.58698 0.52701 0.130948
1108 1 0.638152 0.365658 0.126209
1796 1 0.703819 0.367618 0.177836
482 1 0.233497 0.569199 0.119341
590 1 0.349611 0.629094 0.198602
180 1 0.567342 0.436878 0.0834612
1521 1 0.603601 0.616242 0.146867
541 1 0.708047 0.521351 0.127075
483 1 0.856061 0.617679 0.0411892
1204 1 0.940592 0.521952 0.0762508
372 1 0.172983 0.62644 0.103468
418 1 0.272891 0.640645 0.201298
716 1 0.334884 0.574258 0.0741368
1811 1 0.331283 0.720029 0.966775
1196 1 0.463496 0.593666 0.996684
417 1 0.532964 0.641424 0.0898589
2033 1 0.727189 0.586821 0.00904602
885 1 0.0132991 0.559079 0.0676899
655 1 0.10008 0.683784 0.0453198
2003 1 0.301878 0.62287 0.13067
345 1 0.62093 0.657872 0.0800973
329 1 0.919189 0.745104 0.0499303
1270 1 0.173549 0.734126 0.173279
1819 1 0.356957 0.68791 0.151064
1117 1 0.336812 0.708591 0.0633302
33 1 0.521362 0.727352 0.0860673
753 1 0.708771 0.654048 0.0694431
330 1 0.7272 0.619321 0.24305
77 1 0.877139 0.665603 0.0994759
1731 1 0.0361444 0.712885 0.020091
536 1 0.0680238 0.737583 0.17297
595 1 0.171109 0.728978 0.0128687
1415 1 0.182839 0.877011 0.102531
253 1 0.362417 0.824058 0.0982651
1319 1 0.800617 0.706506 0.230412
184 1 0.843865 0.720371 0.0539301
1218 1 0.888416 0.745944 0.979745
307 1 0.117602 0.737093 0.0955892
1023 1 0.233526 0.829024 0.150337
807 1 0.25677 0.890023 0.0671138
1074 1 0.432619 0.768789 0.00247936
306 1 0.468 0.7507 0.155513
1849 1 0.762483 0.839815 0.887608
850 1 0.683149 0.757244 0.0810727
806 1 0.936695 0.822486 0.0601974
288 1 0.12534 0.839933 0.174173
1409 1 0.238999 0.916822 0.138294
542 1 0.346557 0.855674 0.0324821
1995 1 0.593897 0.900603 0.0248709
1238 1 0.686921 0.914641 0.109845
565 1 0.849971 0.85747 0.117185
1567 1 0.0710414 0.817897 0.0479106
1997 1 0.175978 0.784188 0.122194
842 1 0.0835182 0.880516 0.127234
1168 1 0.721386 0.812818 0.120827
1209 1 0.759511 0.908782 0.929704
292 1 0.732715 0.939823 0.0560195
1392 1 0.965256 0.900865 0.0576955
1145 1 0.962289 0.971189 0.0333988
1396 1 0.128401 0.869998 0.0286
1477 1 0.266967 0.880566 0.210937
854 1 0.401187 0.946087 0.225576
1806 1 0.386423 0.983258 0.150482
1945 1 0.565757 0.966641 0.0581488
732 1 0.725089 0.984944 0.964392
1859 1 0.887693 0.88175 0.0524216
1200 1 0.110773 0.94199 0.0618385
406 1 0.33225 0.908824 0.180334
1791 1 0.354678 0.0100566 0.0828951
5 1 0.431199 0.0044346 0.092284
564 1 0.58629 0.0249233 0.0993021
1540 1 0.760758 0.0390127 0.174937
524 1 0.981161 0.0593045 0.0558295
389 1 0.893631 0.934865 0.124835
1111 1 0.535131 0.0818417 0.209307
2 1 0.487941 0.143692 0.158223
1379 1 0.690902 0.114488 0.170563
726 1 0.726908 0.0903188 0.107814
59 1 0.0897303 0.124438 0.101878
880 1 0.102154 0.0356881 0.0933961
899 1 0.254794 0.00741644 0.134851
293 1 0.311942 0.0936544 0.16657
915 1 0.383797 0.0758567 0.224531
1372 1 0.392884 0.213741 0.120602
1636 1 0.572537 0.157604 0.0621603
751 1 0.714216 0.179459 0.190505
1175 1 0.752561 0.0579832 0.963748
942 1 0.952358 0.110967 0.107063
1364 1 0.0124937 0.130659 0.0482352
106 1 0.288075 0.230301 0.197703
141 1 0.47552 0.269547 0.0727387
1124 1 0.5468 0.195301 0.147526
666 1 0.804411 0.0703311 0.110298
793 1 0.0816617 0.18206 0.047533
464 1 0.10549 0.177152 0.159058
1339 1 0.310447 0.191818 0.114447
1958 1 0.671723 0.289078 0.0576148
1652 1 0.245769 0.251077 0.139541
158 1 0.320761 0.261484 0.137582
60 1 0.655889 0.246428 0.922494
841 1 0.921988 0.0956401 0.0274348
1051 1 0.911651 0.310678 0.0838669
1670 1 0.0470955 0.214308 0.990094
1434 1 0.0509885 0.278197 0.163898
544 1 0.401185 0.411011 0.17869
1246 1 0.594364 0.262109 0.158524
578 1 0.142925 0.218351 0.0868698
1983 1 0.311945 0.399675 0.177563
414 1 0.378151 0.356071 0.236454
588 1 0.447965 0.33413 0.117641
574 1 0.0294269 0.355273 0.0425872
686 1 0.0654094 0.307462 0.0879884
1626 1 0.164694 0.235944 0.15758
461 1 0.473918 0.422281 0.160661
720 1 0.599921 0.404181 0.970668
656 1 0.975375 0.457442 0.109778
44 1 0.224102 0.46725 0.137691
1292 1 0.23817 0.406333 0.229593
1010 1 0.386877 0.564428 0.160573
1387 1 0.418333 0.577997 0.0840313
954 1 0.638105 0.444083 0.0350256
882 1 0.895499 0.579081 0.0962377
589 1 0.03634 0.489643 0.0758714
1371 1 0.149995 0.560147 0.138922
1638 1 0.190975 0.481693 0.213509
1510 1 0.521113 0.489832 0.115533
35 1 0.50383 0.553814 0.169873
1034 1 0.602537 0.525984 0.24486
1031 1 0.738899 0.576218 0.0820246
1724 1 0.0774321 0.620971 0.261238
845 1 0.242404 0.746843 0.120498
999 1 0.374416 0.641519 0.095361
557 1 0.725189 0.694352 0.20641
1489 1 0.950856 0.623963 0.125639
1900 1 0.22076 0.673479 0.151439
582 1 0.441097 0.658228 0.0603628
1876 1 0.652022 0.579798 0.191168
1233 1 0.687889 0.612612 0.135518
388 1 0.654084 0.664004 0.210481
1161 1 0.898954 0.575499 0.180894
1247 1 0.0849407 0.675297 0.121475
615 1 0.15895 0.78991 0.229745
1688 1 0.295449 0.801216 0.186437
1740 1 0.389502 0.887666 0.133291
1237 1 0.371383 0.771851 0.158848
1122 1 0.611098 0.783251 0.123031
521 1 0.963644 0.686993 0.0818174
1918 1 0.934734 0.868914 0.124764
1553 1 0.300275 0.860433 0.123976
908 1 0.424552 0.856262 0.268254
160 1 0.535105 0.878888 0.0785242
1603 1 0.654411 0.709476 0.134349
744 1 0.776051 0.773502 0.0966279
312 1 0.533953 0.929696 0.136153
852 1 0.794106 0.858795 0.0547262
902 1 0.226618 0.971016 0.402177
534 1 0.424311 0.85705 0.0589457
532 1 0.535952 0.0772507 0.122944
924 1 0.718417 0.854478 0.0457692
363 1 0.825513 0.924485 0.086522
1996 1 0.00288228 0.938232 0.116587
413 1 0.256463 0.967774 0.0702025
368 1 0.714811 0.0167937 0.107985
1393 1 0.745466 0.896737 0.22356
870 1 0.794974 0.97774 0.206205
1737 1 0.183582 0.986672 0.135973
719 1 0.498939 0.0067143 0.136317
601 1 0.648767 0.978188 0.218243
643 1 0.717047 0.961854 0.18107
1414 1 0.959417 0.978448 0.178485
765 1 0.118444 0.0180491 0.165314
1616 1 0.0937137 0.985741 0.237577
929 1 0.257295 0.0119498 0.256975
1348 1 0.356549 0.0268606 0.407292
1176 1 0.589423 0.126423 0.136936
620 1 0.890161 0.045741 0.133446
1167 1 0.168222 0.135554 0.119251
1545 1 0.324267 0.158377 0.210231
1847 1 0.643483 0.159595 0.226073
637 1 0.765417 0.115964 0.181114
1400 1 0.00990253 0.1104 0.182914
32 1 0.260447 0.1194 0.10861
1504 1 0.284143 0.143588 0.317114
912 1 0.409737 0.226554 0.221052
2044 1 0.472934 0.207754 0.121152
642 1 0.874636 0.18878 0.165676
901 1 0.873069 0.108737 0.0857778
581 1 0.235792 0.158634 0.168801
322 1 0.479451 0.284978 0.237711
1459 1 0.654482 0.176786 0.138421
1676 1 0.794261 0.200247 0.168487
1820 1 0.976807 0.241091 0.183434
1827 1 0.220481 0.24949 0.237285
1988 1 0.403189 0.291013 0.269039
1398 1 0.36934 0.338489 0.161287
945 1 0.55125 0.299444 0.217157
1536 1 0.602011 0.274414 0.28151
467 1 0.633565 0.222945 0.0814853
1856 1 0.897806 0.193284 0.0836099
1667 1 0.270483 0.316438 0.173458
149 1 0.191252 0.30476 0.178539
287 1 0.328546 0.28473 0.247274
614 1 0.450754 0.425916 0.241206
1072 1 0.586575 0.29551 0.0919403
677 1 0.754696 0.241592 0.089248
1453 1 0.923572 0.347306 0.15416
207 1 0.999036 0.373914 0.123412
407 1 0.570423 0.352858 0.171855
1216 1 0.745766 0.400066 0.351988
1978 1 0.758407 0.394414 0.230683
1941 1 0.800899 0.298544 0.210974
157 1 0.0564475 0.364869 0.178243
827 1 0.134184 0.358053 0.174265
313 1 0.143413 0.463945 0.277191
264 1 0.268762 0.474458 0.207648
1 1 0.427877 0.50481 0.20506
1207 1 0.509165 0.482436 0.205337
1547 1 0.6815 0.459822 0.239077
206 1 0.776256 0.450863 0.123194
327 1 0.13205 0.436719 0.184321
490 1 0.200985 0.528887 0.274394
1944 1 0.355582 0.511713 0.242356
680 1 0.581814 0.448495 0.171408
14 1 0.781301 0.377076 0.150937
1701 1 0.851491 0.445486 0.146104
1153 1 0.204812 0.652802 0.230986
2020 1 0.445593 0.586095 0.228653
1102 1 0.572591 0.588976 0.315819
724 1 0.632493 0.444399 0.114304
974 1 0.822534 0.544223 0.074316
1276 1 0.840478 0.616399 0.146655
1943 1 0.0866301 0.598563 0.113016
398 1 0.0924558 0.582806 0.192299
1112 1 0.21669 0.658276 0.308771
1907 1 0.643501 0.505058 0.176657
1599 1 0.915345 0.50337 0.152643
1749 1 0.00230665 0.526307 0.14302
122 1 0.185853 0.567866 0.207724
1441 1 0.259703 0.723552 0.192652
503 1 0.32817 0.702215 0.226623
1921 1 0.54965 0.586586 0.220779
1495 1 0.756477 0.57621 0.161649
1852 1 0.844911 0.688438 0.162551
494 1 0.0129221 0.602944 0.158141
1321 1 0.0108894 0.684971 0.140566
839 1 0.313296 0.813354 0.271359
857 1 0.432496 0.684413 0.129709
1335 1 0.884239 0.635906 0.232599
916 1 0.98253 0.773132 0.137914
370 1 0.390718 0.84415 0.192702
858 1 0.577171 0.705998 0.137132
1904 1 0.604538 0.764631 0.200748
1861 1 0.728529 0.754165 0.264498
514 1 0.078316 0.8008 0.12836
1241 1 0.234148 0.792913 0.231592
351 1 0.613337 0.875545 0.0948309
922 1 0.682729 0.766442 0.186361
1452 1 0.917116 0.724809 0.126528
448 1 0.920025 0.780364 0.175062
1008 1 0.114335 0.851534 0.247452
1214 1 0.190967 0.857062 0.20551
506 1 0.658085 0.899662 0.215541
795 1 0.80778 0.836058 0.19014
422 1 0.0107171 0.855406 0.0990327
1464 1 0.215922 0.9659 0.201189
1661 1 0.443801 0.939139 0.130168
362 1 0.649204 0.981874 0.128382
1675 1 0.763699 0.951538 0.270434
1685 1 0.75515 0.87825 0.143221
889 1 0.873016 0.94912 0.201751
169 1 0.0471255 0.998733 0.160475
1695 1 0.362053 0.925395 0.38346
1290 1 0.325668 0.0151327 0.186448
1342 1 0.82261 0.913814 0.162277
230 1 0.0284739 0.0794773 0.115846
244 1 0.0867158 0.150803 0.247166
1316 1 0.164739 0.0358927 0.226724
1315 1 0.373128 0.171677 0.267566
477 1 0.715015 0.00881151 0.245134
2023 1 0.821637 0.90308 0.241069
87 1 0.228932 0.086847 0.27088
305 1 0.305672 0.0741682 0.256934
672 1 0.615617 0.0884776 0.209971
1465 1 0.840167 0.985441 0.26879
402 1 0.832614 0.127912 0.147939
1491 1 0.116035 0.0946206 0.166684
936 1 0.243486 0.0869297 0.196737
559 1 0.281075 0.0459978 0.321876
444 1 0.709803 0.106578 0.244623
545 1 0.855691 0.104256 0.247668
1303 1 0.951072 0.179702 0.144309
972 1 0.0303722 0.1895 0.188822
1184 1 0.174975 0.117784 0.211087
1578 1 0.512218 0.264325 0.153715
1535 1 0.56324 0.224457 0.222053
375 1 0.646355 0.233578 0.23835
1325 1 0.780397 0.06451 0.255681
982 1 0.920766 0.26141 0.2318
822 1 0.0146276 0.172365 0.306684
167 1 0.517007 0.319349 0.33086
1205 1 0.813053 0.170461 0.236001
855 1 0.905639 0.257099 0.156425
646 1 0.310287 0.221697 0.285244
279 1 0.576935 0.347801 0.275753
280 1 0.56951 0.125706 0.289847
1327 1 0.704839 0.298986 0.235096
432 1 0.84944 0.238644 0.219065
1003 1 0.0850379 0.42036 0.239728
1785 1 0.150511 0.273037 0.260275
1022 1 0.589396 0.202111 0.296917
249 1 0.670412 0.293207 0.139103
474 1 0.76092 0.30332 0.137649
930 1 0.691697 0.381501 0.269725
1570 1 0.989393 0.30602 0.221519
209 1 0.174626 0.35226 0.239321
296 1 0.33907 0.435023 0.242311
133 1 0.489334 0.349459 0.19345
512 1 0.894586 0.380347 0.303034
1725 1 0.0413569 0.36538 0.263469
1086 1 0.114746 0.359879 0.281491
61 1 0.0925036 0.316454 0.220996
1324 1 0.302403 0.360638 0.24357
2034 1 0.557262 0.390537 0.337165
415 1 0.0172267 0.445154 0.183044
310 1 0.127329 0.542001 0.257096
526 1 0.450913 0.613695 0.157729
382 1 0.638727 0.408302 0.203755
522 1 0.809885 0.396321 0.304751
1407 1 0.754749 0.484825 0.184219
1386 1 0.91809 0.53548 0.320375
508 1 0.0722665 0.488995 0.148595
1734 1 0.279045 0.546756 0.200526
120 1 0.523437 0.535123 0.306061
1193 1 0.598176 0.574377 0.405459
1836 1 0.807178 0.62419 0.219362
927 1 0.838716 0.517895 0.141643
451 1 0.0504136 0.682503 0.220855
1009 1 0.657196 0.725212 0.261795
1777 1 0.718973 0.53744 0.244025
504 1 0.134668 0.645024 0.181189
1580 1 0.140548 0.609515 0.344123
865 1 0.356824 0.682852 0.307803
979 1 0.440672 0.665839 0.218102
1165 1 0.610839 0.524776 0.332858
475 1 0.667013 0.585029 0.274588
668 1 0.810831 0.540521 0.203979
1385 1 0.114706 0.790135 0.297962
314 1 0.203149 0.721919 0.255695
426 1 0.364951 0.850242 0.322282
510 1 0.376897 0.770193 0.314375
450 1 0.581405 0.704083 0.240226
638 1 0.605894 0.849975 0.2368
1559 1 0.838728 0.575898 0.281766
698 1 0.048449 0.810308 0.210009
1002 1 0.343086 0.879368 0.252195
1265 1 0.463219 0.824946 0.207449
348 1 0.906348 0.705417 0.20406
1582 1 0.974752 0.652269 0.209178
1463 1 0.0848061 0.913276 0.204686
1623 1 0.531379 0.863715 0.219729
1406 1 0.571097 0.863435 0.156992
1347 1 0.491681 0.861111 0.13611
194 1 0.656126 0.830078 0.159065
385 1 0.0128545 0.898453 0.179205
1015 1 0.242746 0.917663 0.271717
823 1 0.384507 0.786034 0.241904
423 1 0.887932 0.863875 0.195352
89 1 0.0319508 0.877903 0.247497
828 1 0.153964 0.919978 0.241421
694 1 0.467633 0.912302 0.206645
1326 1 0.471341 0.0675454 0.174648
1258 1 0.986586 0.866952 0.314085
1397 1 0.922927 0.056515 0.259976
326 1 0.0260464 0.955139 0.245183
1449 1 0.347822 0.00809569 0.274913
463 1 0.526689 0.926013 0.266838
693 1 0.517632 0.979017 0.199942
1376 1 0.583205 0.933409 0.20632
702 1 0.792308 0.944437 0.372115
1754 1 0.959088 0.826487 0.222987
48 1 0.282226 0.0291575 0.402535
196 1 0.45389 0.949271 0.279256
1684 1 0.592762 0.0213187 0.173178
537 1 0.84215 0.0335227 0.198264
763 1 0.924846 0.978307 0.273376
783 1 0.0842036 0.070117 0.24513
487 1 0.297623 0.963671 0.332505
1013 1 0.547368 0.0157009 0.261519
1854 1 0.653864 0.0462788 0.266271
1723 1 0.804881 0.125149 0.298461
1263 1 0.90199 0.121002 0.190331
145 1 0.960429 0.0547505 0.161918
1177 1 0.236433 0.105966 0.357349
178 1 0.369462 0.132378 0.400357
68 1 0.475294 0.0477637 0.255373
1256 1 0.738244 0.0961574 0.322492
1272 1 0.852525 0.0530293 0.312081
1780 1 0.892231 0.185872 0.253366
1934 1 0.121397 0.217667 0.305466
1927 1 0.988998 0.235216 0.265309
493 1 0.258515 0.170677 0.247443
1590 1 0.415774 0.142115 0.191973
1557 1 0.493113 0.140145 0.242729
74 1 0.0968132 0.223992 0.221469
1390 1 0.208993 0.155936 0.303411
1307 1 0.468338 0.270359 0.350806
727 1 0.487314 0.204871 0.203441
394 1 0.567445 0.152994 0.209769
1351 1 0.709636 0.201082 0.27323
1601 1 0.17507 0.246681 0.363456
784 1 0.404108 0.35754 0.372831
993 1 0.349644 0.324744 0.316694
412 1 0.558613 0.238583 0.361641
2038 1 0.631549 0.330775 0.216287
1180 1 0.768565 0.251759 0.262446
371 1 0.929711 0.273236 0.309527
1134 1 0.0508423 0.276939 0.30274
350 1 0.217452 0.374357 0.296688
343 1 0.828696 0.271857 0.134958
1630 1 0.938634 0.445239 0.195236
893 1 0.252337 0.303197 0.278477
1206 1 0.293661 0.380865 0.317149
1643 1 0.239977 0.220443 0.334889
755 1 0.44874 0.409906 0.324256
779 1 0.661822 0.448753 0.313325
245 1 0.570457 0.336384 0.461617
1868 1 0.765957 0.327965 0.274401
648 1 0.876492 0.368586 0.22952
1486 1 0.518633 0.450018 0.308724
115 1 0.596793 0.436553 0.265845
1469 1 0.991248 0.475416 0.376097
1985 1 0.0703265 0.558392 0.303621
1090 1 0.201842 0.465891 0.346738
1190 1 0.286253 0.51229 0.274231
349 1 0.592745 0.457208 0.3678
150 1 0.8858 0.458237 0.3247
1726 1 0.854041 0.441083 0.257833
1136 1 0.17509 0.602158 0.275804
1496 1 0.390048 0.629882 0.263271
1151 1 0.574006 0.640998 0.379672
562 1 0.736313 0.453546 0.28979
778 1 0.788254 0.493625 0.256306
1931 1 0.8401 0.531248 0.345753
1992 1 0.9975 0.507398 0.299481
275 1 0.122122 0.700675 0.240916
442 1 0.467201 0.680208 0.313938
416 1 0.287444 0.646431 0.280587
164 1 0.718405 0.632798 0.362989
894 1 0.985201 0.505688 0.217866
1665 1 0.173162 0.683591 0.36412
1401 1 0.325964 0.583129 0.261198
1800 1 0.409741 0.718632 0.260187
1288 1 0.747275 0.696778 0.395609
267 1 0.756869 0.54792 0.314396
83 1 0.952081 0.559647 0.256247
1672 1 0.0283851 0.575057 0.234464
1264 1 0.189091 0.780267 0.299665
1337 1 0.707267 0.672062 0.288422
1181 1 0.925845 0.625544 0.291854
1703 1 0.886439 0.521663 0.245542
1260 1 0.157451 0.791162 0.362891
98 1 0.243044 0.838612 0.330646
471 1 0.458006 0.784691 0.274872
1042 1 0.529349 0.787214 0.203422
884 1 0.846752 0.761082 0.134626
1622 1 0.0475271 0.776174 0.353125
1502 1 0.305572 0.891319 0.319721
1562 1 0.64148 0.82014 0.352242
975 1 0.775011 0.760108 0.170796
1913 1 0.868786 0.837531 0.269008
1329 1 0.0127303 0.790717 0.274314
752 1 0.0610393 0.848666 0.310002
1778 1 0.169544 0.855596 0.306251
111 1 0.206841 0.931655 0.34142
254 1 0.436913 0.00693666 0.199113
11 1 0.573157 0.882224 0.309235
121 1 0.712404 0.831697 0.226892
1883 1 0.781917 0.825203 0.258745
1118 1 0.508581 0.945155 0.346491
756 1 0.609325 0.9464 0.286207
1878 1 0.65932 0.87458 0.288742
992 1 0.680173 0.911704 0.353882
1860 1 0.73592 0.879753 0.313489
1993 1 0.895057 0.908499 0.293376
1885 1 0.0407036 0.921454 0.341862
1717 1 0.0856478 0.923363 0.281248
821 1 0.188491 0.983463 0.281306
767 1 0.300824 0.956468 0.235153
1775 1 0.367317 0.930588 0.307138
408 1 0.722624 0.99441 0.325023
1530 1 0.936478 0.0518164 0.3427
867 1 0.14337 0.0674897 0.372332
1040 1 0.49803 0.0170308 0.336576
101 1 0.763183 0.0687336 0.410605
1212 1 0.810953 0.00661 0.444468
1361 1 0.781589 0.0366999 0.32922
1420 1 0.00336431 0.0851941 0.289568
1455 1 0.988415 0.977386 0.305104
670 1 0.121224 0.205214 0.410075
1588 1 0.416691 0.0362867 0.300464
1287 1 0.828553 0.257146 0.422531
785 1 0.965311 0.148584 0.244471
1295 1 0.0790527 0.13862 0.32528
1850 1 0.432928 0.166093 0.331941
718 1 0.440013 0.228588 0.28992
318 1 0.592733 0.0550957 0.317739
525 1 0.00971554 0.0883019 0.401402
401 1 0.175308 0.187011 0.241816
746 1 0.154766 0.159497 0.354924
553 1 0.340507 0.123485 0.519753
143 1 0.528683 0.246756 0.289083
1104 1 0.51685 0.173966 0.313984
1488 1 0.744838 0.17717 0.337118
961 1 0.81938 0.199453 0.314162
1430 1 0.927323 0.19386 0.318092
921 1 0.992411 0.237821 0.347846
1083 1 0.495334 0.201231 0.39882
764 1 0.674038 0.137085 0.305019
898 1 0.690041 0.264338 0.313174
671 1 0.847888 0.291223 0.272498
1208 1 0.0587745 0.274238 0.391396
1702 1 0.187592 0.303344 0.317803
1935 1 0.432297 0.424631 0.418695
1857 1 0.632469 0.372645 0.320361
800 1 0.752247 0.284398 0.454086
935 1 0.379509 0.406583 0.297675
1821 1 0.512153 0.294037 0.410507
1604 1 0.642988 0.397694 0.393094
575 1 0.702874 0.332523 0.360705
1036 1 0.0647428 0.419251 0.354682
1156 1 0.543633 0.43552 0.41349
1524 1 0.630379 0.4741 0.510108
1687 1 0.856864 0.327636 0.345665
300 1 0.956646 0.42336 0.321305
1133 1 0.0666291 0.494788 0.34966
90 1 0.324911 0.466664 0.331652
1554 1 0.526774 0.399524 0.238266
1809 1 0.678292 0.474994 0.388395
1099 1 0.939482 0.467756 0.266016
1244 1 0.812828 0.497742 0.418361
1760 1 0.136271 0.4928 0.476263
527 1 0.187022 0.390543 0.410604
1721 1 0.432333 0.49454 0.287283
1147 1 0.53043 0.56334 0.372752
780 1 0.463278 0.48663 0.360284
1939 1 0.79133 0.467827 0.340873
1121 1 0.141935 0.50642 0.33461
383 1 0.239621 0.586198 0.314738
1030 1 0.253227 0.443589 0.292851
1846 1 0.435493 0.586538 0.309349
1357 1 0.662969 0.554117 0.432341
809 1 0.74244 0.513961 0.382697
966 1 0.879567 0.593204 0.353469
789 1 0.117645 0.674988 0.316311
1356 1 0.612403 0.641023 0.27889
1048 1 0.861908 0.559747 0.432477
673 1 0.870039 0.674463 0.342925
1816 1 0.930772 0.6145 0.444603
819 1 3.71769e-05 0.625505 0.283274
1625 1 0.361384 0.612176 0.330078
2011 1 0.544938 0.670955 0.295641
1254 1 0.801478 0.644682 0.368061
447 1 0.108789 0.729933 0.370242
1139 1 0.218549 0.719099 0.428515
185 1 0.27975 0.639644 0.358545
918 1 0.280791 0.735345 0.281236
1497 1 0.502092 0.604529 0.279809
205 1 0.49039 0.718896 0.23679
1135 1 0.973277 0.712814 0.281382
1894 1 0.997878 0.74678 0.211011
593 1 0.976389 0.746938 0.355269
1120 1 0.132491 0.735908 0.454539
232 1 0.643544 0.77552 0.505112
107 1 0.796587 0.65434 0.450149
599 1 0.224071 0.798546 0.417601
358 1 0.309103 0.824486 0.361641
1792 1 0.435957 0.796365 0.365694
1103 1 0.535458 0.789485 0.282752
262 1 0.61527 0.785804 0.284064
1974 1 0.883555 0.818628 0.396272
533 1 0.125718 0.811454 0.431468
86 1 0.0800333 0.855023 0.392475
940 1 0.259083 0.844369 0.474188
331 1 0.0926989 0.998815 0.313092
282 1 0.711775 0.809782 0.312049
2040 1 0.816026 0.759782 0.280989
1627 1 0.959032 0.900779 0.245188
132 1 0.145652 0.800869 0.513079
247 1 0.392645 0.858773 0.399445
3 1 0.49485 0.870517 0.38479
1435 1 0.642237 0.876914 0.422016
608 1 0.820258 0.887095 0.316508
1768 1 0.99522 0.0330018 0.230224
1739 1 0.110049 0.994639 0.481479
734 1 0.206172 0.0363771 0.338996
1450 1 0.571334 0.984902 0.346047
1802 1 0.690948 0.943018 0.275783
1949 1 0.00476682 0.0139849 0.424877
1305 1 0.194998 0.0363082 0.435779
2031 1 0.226337 0.0998532 0.445397
55 1 0.603263 0.0107238 0.412698
1423 1 0.674741 0.0316481 0.497613
1928 1 0.675919 0.0565535 0.352884
1344 1 0.934445 0.00211462 0.40293
2016 1 0.141739 0.115304 0.288722
798 1 0.42017 0.0910522 0.585335
928 1 0.405713 0.983455 0.363408
569 1 0.417013 0.995447 0.450031
481 1 0.648788 0.985574 0.345455
1447 1 0.705794 0.126438 0.391497
1783 1 0.064562 0.208355 0.356289
1498 1 0.247108 0.209811 0.469919
714 1 0.362915 0.0948487 0.332157
256 1 0.797124 0.140703 0.406794
1801 1 0.954398 0.124318 0.334358
202 1 0.125057 0.270818 0.471262
664 1 0.443097 0.137276 0.412961
1070 1 0.630392 0.0822572 0.407819
1951 1 0.710231 0.251173 0.386194
29 1 0.779016 0.249944 0.355533
949 1 0.871413 0.14059 0.330788
1503 1 0.0343272 0.202853 0.436086
118 1 0.0628203 0.312345 0.464058
866 1 0.203681 0.269948 0.458733
743 1 0.351869 0.182232 0.341728
1743 1 0.393731 0.276103 0.356217
1201 1 0.779121 0.323257 0.392048
1378 1 0.871379 0.250229 0.35296
1262 1 0.115278 0.307186 0.337559
1411 1 0.318758 0.263517 0.346624
697 1 0.376727 0.269764 0.450305
1842 1 0.6294 0.272272 0.36358
1282 1 0.672877 0.419562 0.46808
840 1 0.933246 0.319919 0.370275
1649 1 0.180205 0.316477 0.396096
2037 1 0.215406 0.18512 0.397294
848 1 0.420066 0.47219 0.529248
62 1 0.566468 0.165041 0.378723
1762 1 0.564382 0.437036 0.490954
21 1 0.820126 0.413289 0.460014
1476 1 0.960542 0.380409 0.22011
602 1 0.956933 0.343576 0.299007
1148 1 0.150626 0.476554 0.40208
1284 1 0.251204 0.326602 0.358537
216 1 0.313642 0.330678 0.413771
1478 1 0.598631 0.336383 0.39197
769 1 0.821829 0.410402 0.382071
1394 1 0.0622277 0.508271 0.226948
1424 1 0.282242 0.485608 0.391441
835 1 0.395651 0.456591 0.351806
148 1 0.553562 0.217863 0.449867
1624 1 0.702235 0.494601 0.471344
609 1 0.988775 0.399709 0.385669
252 1 0.202589 0.537886 0.369776
1565 1 0.493145 0.37672 0.375706
1875 1 0.742995 0.433019 0.51103
931 1 0.890982 0.485137 0.396411
1269 1 0.0179806 0.434002 0.275075
1583 1 0.0172284 0.553519 0.404334
1089 1 0.402652 0.576753 0.462683
235 1 0.452234 0.573963 0.403696
339 1 0.619597 0.54706 0.543221
26 1 0.93282 0.554115 0.389934
1302 1 0.303011 0.550863 0.362707
53 1 0.320831 0.537946 0.43709
1771 1 0.359045 0.535991 0.313274
1967 1 0.574373 0.600479 0.507435
1744 1 0.500663 0.678022 0.386046
1189 1 0.683724 0.574101 0.507256
1060 1 0.863515 0.698703 0.270696
529 1 0.449141 0.722652 0.438011
1764 1 0.755627 0.58295 0.411734
16 1 0.864602 0.475891 0.472387
359 1 0.0472777 0.697969 0.451707
507 1 0.200901 0.622185 0.403532
57 1 0.388405 0.70538 0.374481
1092 1 0.501251 0.860609 0.297816
1043 1 0.578528 0.727772 0.345105
278 1 0.646011 0.687892 0.339214
1312 1 0.644273 0.611579 0.355799
678 1 0.857246 0.763055 0.214225
437 1 0.0290705 0.687176 0.37326
1614 1 0.8836 0.749917 0.326147
740 1 0.145835 0.659986 0.482573
69 1 0.234094 0.749707 0.360035
248 1 0.700088 0.756426 0.363744
531 1 0.832349 0.728936 0.396938
1981 1 0.052706 0.773935 0.431295
547 1 0.136401 0.713383 0.539314
404 1 0.435129 0.896741 0.334222
294 1 0.444739 0.857297 0.460694
1950 1 0.543762 0.811037 0.35461
105 1 0.790572 0.659878 0.291678
934 1 0.880621 0.898074 0.44881
395 1 0.925598 0.762598 0.253983
2029 1 0.125978 0.914737 0.354998
1901 1 0.151063 0.983762 0.394767
4 1 0.449912 0.927767 0.413608
1948 1 0.743202 0.820824 0.387749
905 1 0.926277 0.818246 0.325781
814 1 0.994059 0.814024 0.397376
1589 1 0.0251268 0.899318 0.451527
299 1 0.180138 0.859155 0.381685
628 1 0.338996 0.0140143 0.475752
548 1 0.737421 0.905297 0.411336
1681 1 0.0792506 0.0617873 0.405533
825 1 0.299069 0.925167 0.422567
1467 1 0.425791 0.0575819 0.382947
1834 1 0.517791 0.997757 0.410077
441 1 0.57194 0.916152 0.378739
1198 1 0.739037 0.990237 0.401419
198 1 0.889456 0.975929 0.340352
550 1 0.97112 0.894287 0.38098
1546 1 0.382395 0.0837208 0.472114
242 1 0.473757 0.926262 0.506356
1585 1 0.527902 0.924489 0.437797
1879 1 0.707826 0.0783322 0.553822
1126 1 0.0772109 0.135039 0.401736
1634 1 0.0341896 0.0402398 0.347027
1418 1 0.127133 0.0747509 0.465372
1592 1 0.16842 0.115932 0.519509
1805 1 0.6673 0.190911 0.441396
162 1 0.786601 0.125329 0.477442
1025 1 0.297021 0.144207 0.393987
342 1 0.423549 0.112607 0.272736
1471 1 0.559287 0.0558959 0.457663
1594 1 0.694243 0.047873 0.429066
658 1 0.661585 0.264842 0.502806
405 1 0.863509 0.0334686 0.383394
85 1 0.946094 0.17451 0.392401
1011 1 0.986619 0.301973 0.524803
283 1 0.373808 0.176719 0.473837
543 1 0.459628 0.0588265 0.450393
1619 1 0.86906 0.188404 0.394689
92 1 0.934853 0.248159 0.401955
1867 1 0.477226 0.223243 0.470956
2000 1 0.490931 0.100487 0.335783
72 1 0.51271 0.111005 0.409251
195 1 0.637397 0.188751 0.360953
1841 1 0.0227497 0.385237 0.454017