ITEM: TIMESTEP
100000
ITEM: NUMBER OF ATOMS
2048
ITEM: BOX BOUNDS pp pp pp
0.0000000000000000e+00 1.2302095357258066e+01
0.0000000000000000e+00 1.2302095357258066e+01
0.0000000000000000e+00 1.2302095357258066e+01
ITEM: ATOMS id type xs ys zs
1471 1 0.0402666 0.0423831 0.00850462
555 1 0.112071 0.0299483 0.0549643
692 1 0.38561 0.0369458 0.00583269
25 1 0.566294 0.0320031 0.0540124
578 1 0.686006 8.59842e-05 0.0171091
1579 1 0.881375 0.0231506 0.00383808
1866 1 0.964534 0.0494101 0.0226601
1503 1 0.198692 0.0686183 0.0364569
693 1 0.271081 0.0595498 0.00569063
135 1 0.328958 0.105916 0.0370022
1173 1 0.647077 0.0715909 0.0344736
61 1 0.732668 0.0893119 0.0391622
1670 1 0.811323 0.0794217 0.0207701
1951 1 0.00252744 0.114947 0.0374262
252 1 0.0853544 0.115437 0.0168245
1814 1 0.154414 0.131627 0.0515253
516 1 0.227679 0.148188 0.0184522
1505 1 0.38963 0.144489 0.00298297
259 1 0.471083 0.158187 0.024513
207 1 0.549948 0.118832 0.0391492
1396 1 0.892092 0.125652 0.0201867
1249 1 0.046134 0.176283 0.0554562
30 1 0.291958 0.215044 0.0554492
370 1 0.527632 0.218837 0.0512282
442 1 0.590889 0.177526 0.00775505
1747 1 0.855002 0.196295 0.00728379
245 1 0.933449 0.204638 0.0115938
267 1 0.219057 0.236217 0.0239229
726 1 0.362656 0.227985 0.00712023
982 1 0.441348 0.241146 0.0140338
819 1 0.751018 0.275867 0.0157078
667 1 0.997353 0.235655 0.0535604
1574 1 0.339402 0.301993 0.0150982
1049 1 0.413229 0.317398 0.0312438
936 1 0.619368 0.306366 0.0279122
1652 1 0.841502 0.281278 0.0201508
860 1 0.924396 0.288923 0.0297134
1237 1 0.994228 0.326181 0.0120549
793 1 0.212299 0.384779 0.026602
1649 1 0.359643 0.372864 0.0541163
454 1 0.553338 0.34832 0.0481535
659 1 0.691554 0.335306 0.0186335
526 1 0.789411 0.346941 0.0114132
1119 1 0.0130718 0.406038 0.0361084
1984 1 0.100836 0.439762 0.021948
1960 1 0.282285 0.422527 0.0293335
884 1 0.416115 0.39855 0.00284133
1453 1 0.499964 0.418959 0.00621719
1567 1 0.58104 0.405901 0.00640669
504 1 0.663035 0.411685 0.0201309
1189 1 0.736909 0.405623 0.0429877
1657 1 0.845395 0.409904 0.0044634
2 1 0.941158 0.406972 0.0001693
1798 1 0.228739 0.493877 0.0291116
306 1 0.302867 0.498531 0.0480636
1265 1 0.361508 0.453713 0.0184005
1324 1 0.437191 0.46837 0.0363305
107 1 0.78302 0.47335 0.0325646
310 1 0.934004 0.487512 0.0160508
1499 1 0.0656977 0.504546 0.0416038
1451 1 0.142132 0.514862 0.00733082
1108 1 0.395273 0.536664 0.0226321
1307 1 0.512618 0.502077 0.0323457
540 1 0.599887 0.504435 0.00907261
709 1 0.66253 0.547641 0.00372292
942 1 0.752984 0.549286 0.0281092
1257 1 0.837463 0.549808 0.010686
804 1 0.117041 0.591547 0.0522107
1174 1 0.312275 0.598307 0.0016488
1170 1 0.472156 0.581125 0.00988306
121 1 0.539889 0.573619 0.0465802
1802 1 0.703368 0.606857 0.0375254
438 1 0.915897 0.558299 0.0342035
1414 1 0.0440074 0.616974 0.0374036
1087 1 0.211182 0.626571 0.0237877
780 1 0.351343 0.66084 0.0480625
1279 1 0.610793 0.613581 0.0540761
188 1 0.908835 0.633945 0.00514185
2031 1 0.00734727 0.701166 0.0431373
1469 1 0.108452 0.668767 0.0290747
536 1 0.269135 0.680189 0.0308843
1824 1 0.431901 0.674938 0.0397692
116 1 0.51177 0.677175 0.0552197
1370 1 0.585662 0.69972 0.04678
1731 1 0.762922 0.675191 0.00505625
33 1 0.827601 0.684539 0.0470713
1490 1 0.131514 0.754939 0.0541254
1892 1 0.23143 0.775772 0.0388482
469 1 0.299897 0.755435 0.00275541
748 1 0.467712 0.746564 0.041031
216 1 0.709744 0.734545 0.031944
584 1 0.942098 0.753236 0.0149498
1230 1 0.0611185 0.814166 0.0363623
1705 1 0.191357 0.828806 0.000463621
1769 1 0.279626 0.82844 0.0106989
976 1 0.357742 0.82852 0.0301668
404 1 0.436831 0.814149 0.051912
913 1 0.558821 0.795348 0.0368843
965 1 0.791818 0.818632 0.0338231
859 1 0.879534 0.805681 0.00502462
751 1 0.0014627 0.86081 0.0342529
196 1 0.141726 0.863221 0.0463661
53 1 0.64019 0.849888 0.0166309
944 1 0.716821 0.883785 0.00599577
289 1 0.916725 0.879431 0.0350619
527 1 0.0123828 0.940849 0.0136952
1203 1 0.198273 0.922726 0.0455541
92 1 0.272248 0.910605 0.0317859
1809 1 0.41335 0.889003 0.0554771
1783 1 0.809554 0.892874 0.0002251
1864 1 0.864997 0.942068 0.027157
987 1 0.103379 0.967216 0.00958271
1134 1 0.18388 0.994396 0.0165005
768 1 0.32766 0.984362 0.0179398
1387 1 0.600574 0.958026 0.0466064
1090 1 0.753004 0.959896 0.0352038
856 1 0.942012 0.971777 0.0128026
418 1 0.181135 0.00902116 0.0944955
1840 1 0.260335 0.0553204 0.100257
1637 1 0.338041 0.0390629 0.0790158
714 1 0.713376 0.0450174 0.0996415
2016 1 0.789055 0.0526227 0.0897963
1919 1 0.871104 0.00558845 0.0893254
312 1 0.0494533 0.0640925 0.0938879
1083 1 0.473487 0.0619334 0.0644689
718 1 0.622227 0.0743975 0.109731
1178 1 0.910448 0.0761536 0.0845695
1454 1 0.291196 0.145957 0.0999518
143 1 0.414241 0.113094 0.0710426
1650 1 0.505578 0.140144 0.103876
622 1 0.614578 0.150514 0.0782352
1401 1 0.693112 0.123926 0.101889
1710 1 0.780213 0.144296 0.0636971
1983 1 0.864589 0.140942 0.0890429
1724 1 0.942754 0.154625 0.0755365
474 1 0.123523 0.202049 0.0631227
1252 1 0.200985 0.209244 0.0974132
1654 1 0.366384 0.172908 0.0894724
1018 1 0.443974 0.200482 0.0956182
544 1 0.675047 0.203118 0.106067
336 1 0.735615 0.206997 0.0564911
1672 1 0.887646 0.217275 0.0767932
1839 1 0.0695775 0.271768 0.0636974
140 1 0.163554 0.270933 0.062963
2015 1 0.363598 0.254629 0.0786745
79 1 0.612899 0.238039 0.0707267
1479 1 0.682194 0.275018 0.0671509
72 1 0.809227 0.222688 0.0669726
101 1 0.938336 0.276658 0.10489
189 1 0.00848843 0.309307 0.0983036
367 1 0.226497 0.3064 0.0938385
518 1 0.303418 0.31295 0.0841566
74 1 0.465943 0.28953 0.082069
1636 1 0.553952 0.285979 0.0929041
888 1 0.803304 0.316387 0.0891467
673 1 0.0639984 0.351754 0.0579257
1788 1 0.153623 0.348901 0.0560077
1085 1 0.259763 0.379982 0.107736
1552 1 0.468346 0.37119 0.0613814
1908 1 0.635281 0.367558 0.0817587
268 1 0.727509 0.340121 0.0888378
825 1 0.876737 0.33926 0.0873272
1144 1 0.955148 0.365791 0.0838906
1457 1 0.117101 0.406319 0.0931449
640 1 0.331381 0.434926 0.0951335
1051 1 0.408958 0.421711 0.0970859
593 1 0.538232 0.438058 0.0816852
467 1 0.677591 0.426544 0.102421
416 1 0.815323 0.40549 0.0770829
939 1 0.895707 0.421887 0.0677979
1715 1 0.17477 0.446619 0.0611761
1878 1 0.245572 0.461385 0.0970643
642 1 0.616435 0.460058 0.0689739
741 1 0.706812 0.499496 0.0586643
1267 1 0.866395 0.496198 0.0656433
1882 1 0.9797 0.466413 0.0786749
22 1 0.130586 0.505764 0.0904366
1036 1 0.44746 0.538186 0.0809645
190 1 0.593271 0.551831 0.0942047
1964 1 0.810078 0.544513 0.0891894
215 1 0.986748 0.545166 0.0733604
1745 1 0.186806 0.556186 0.0636889
607 1 0.278651 0.606272 0.0763615
428 1 0.379866 0.583739 0.0944953
605 1 0.140162 0.653746 0.102425
109 1 0.216063 0.640098 0.110534
925 1 0.45791 0.615995 0.0814414
375 1 0.774388 0.616051 0.0654871
305 1 0.862609 0.611853 0.0664416
1044 1 0.974087 0.633159 0.0651805
1540 1 0.0552103 0.667749 0.103053
1358 1 0.199001 0.707361 0.0640207
1604 1 0.659546 0.681457 0.0648607
647 1 0.732475 0.680579 0.0903787
1981 1 0.917219 0.686962 0.059853
1884 1 0.265712 0.726342 0.0968859
696 1 0.354411 0.74742 0.0613427
782 1 0.521311 0.744926 0.0954201
1436 1 0.628784 0.757761 0.0655112
844 1 0.778714 0.738908 0.0757993
1027 1 0.872448 0.749432 0.0604999
588 1 0.998812 0.774921 0.0788382
1969 1 0.0960848 0.803174 0.104103
1682 1 0.187618 0.794707 0.100436
803 1 0.508925 0.823097 0.099308
1606 1 0.728584 0.799212 0.0796016
80 1 0.927037 0.807255 0.0709573
532 1 0.0143571 0.84363 0.111003
924 1 0.225641 0.852325 0.0652831
814 1 0.296417 0.871668 0.0957516
576 1 0.385956 0.836351 0.108441
1405 1 0.593729 0.876747 0.0682943
1040 1 0.661417 0.836697 0.0954021
666 1 0.764397 0.879515 0.0721839
868 1 0.853593 0.854124 0.0687895
1343 1 0.0685205 0.892933 0.0560968
789 1 0.132466 0.940514 0.088974
1374 1 0.34283 0.929327 0.0692549
1847 1 0.510227 0.897305 0.0576007
459 1 0.67654 0.929397 0.0604035
902 1 0.903329 0.933343 0.0940135
213 1 0.980806 0.920393 0.0800169
1852 1 0.0518153 0.983581 0.0660272
1849 1 0.263822 0.983571 0.0670133
1118 1 0.415557 0.993128 0.0658288
498 1 0.501526 0.981467 0.0628294
1263 1 0.649646 0.99676 0.0985422
1042 1 0.732531 0.96458 0.110685
967 1 0.807675 0.962942 0.0900407
533 1 0.95736 0.998558 0.0910058
227 1 0.0956046 0.000901784 0.126458
567 1 0.227559 0.000848868 0.162859
1734 1 0.484292 0.00340896 0.159194
1627 1 0.531066 0.0520665 0.120961
1300 1 0.607934 0.00929783 0.162917
1811 1 0.765064 0.029795 0.160246
1135 1 0.155958 0.0793667 0.112661
932 1 0.349862 0.105114 0.126996
1165 1 0.418037 0.0582835 0.127961
1749 1 0.767582 0.109419 0.152446
951 1 0.852969 0.0682989 0.135805
1773 1 0.979554 0.0695976 0.123006
88 1 0.0119175 0.135406 0.135476
385 1 0.0856752 0.131902 0.114564
651 1 0.142842 0.151235 0.16138
1152 1 0.213649 0.138016 0.122635
1443 1 0.423981 0.14539 0.150248
77 1 0.564861 0.11585 0.149604
1294 1 0.637305 0.151121 0.157636
1593 1 0.912937 0.120011 0.149618
450 1 0.043109 0.220915 0.120733
130 1 0.405168 0.222062 0.164502
1233 1 0.575769 0.19482 0.134299
366 1 0.784991 0.200133 0.146921
4 1 0.862137 0.193987 0.149354
1219 1 0.964893 0.207104 0.132199
1571 1 0.13353 0.236336 0.130007
637 1 0.199043 0.274256 0.159933
1643 1 0.286528 0.242043 0.130803
1979 1 0.503208 0.235441 0.128501
457 1 0.742507 0.262589 0.116522
1596 1 0.859014 0.276745 0.132183
1741 1 0.108953 0.316794 0.114306
1028 1 0.372056 0.292309 0.156185
713 1 0.495003 0.317683 0.153458
1994 1 0.616098 0.300203 0.139109
1696 1 0.689153 0.316793 0.158996
1633 1 0.767734 0.328281 0.157019
477 1 0.0314091 0.38298 0.127323
1717 1 0.180328 0.365124 0.130251
34 1 0.337266 0.362537 0.150057
931 1 0.41238 0.343964 0.112469
1753 1 0.558958 0.358726 0.127832
14 1 0.630683 0.385681 0.159859
260 1 0.843311 0.373845 0.149799
237 1 0.915461 0.341519 0.161925
1476 1 0.082257 0.434043 0.162491
148 1 0.474725 0.405443 0.130763
996 1 0.763205 0.403343 0.137874
331 1 0.930584 0.41769 0.137929
695 1 0.0458621 0.485844 0.113342
441 1 0.161948 0.454223 0.140675
539 1 0.434401 0.47217 0.15868
805 1 0.595152 0.467274 0.14478
1196 1 0.769341 0.476578 0.112625
1962 1 0.846747 0.463112 0.133593
1266 1 0.208356 0.52148 0.156273
76 1 0.286945 0.524128 0.135646
1272 1 0.381711 0.504013 0.111232
1961 1 0.506423 0.505024 0.13086
1361 1 0.663027 0.516489 0.119014
1480 1 0.883935 0.53722 0.132245
1180 1 0.0541329 0.569447 0.113448
337 1 0.170859 0.585102 0.131318
774 1 0.258782 0.60261 0.165968
405 1 0.336207 0.586976 0.160743
1006 1 0.446732 0.560345 0.160469
1045 1 0.526551 0.596965 0.119318
1977 1 0.679063 0.602446 0.136818
134 1 0.739963 0.55587 0.114601
228 1 0.829288 0.595147 0.146189
827 1 0.962141 0.592203 0.134127
1435 1 0.387338 0.656776 0.115182
1432 1 0.467825 0.638561 0.160471
244 1 0.604151 0.639883 0.159874
813 1 0.745149 0.634367 0.155645
128 1 0.80882 0.663984 0.119439
566 1 0.117499 0.719939 0.136473
322 1 0.291921 0.668436 0.138098
2005 1 0.457561 0.695339 0.111769
50 1 0.54065 0.673594 0.127099
93 1 0.6152 0.720461 0.130758
295 1 0.674105 0.678249 0.166582
716 1 0.75352 0.714885 0.166489
1957 1 0.850046 0.716513 0.160891
408 1 0.912093 0.668667 0.136509
941 1 0.988763 0.670348 0.143633
994 1 0.0387053 0.736623 0.141793
1239 1 0.197276 0.72749 0.144356
194 1 0.3859 0.735324 0.146941
27 1 0.448174 0.768158 0.116142
765 1 0.691969 0.73798 0.122138
669 1 0.943456 0.735306 0.119057
1885 1 0.246414 0.794582 0.151763
1533 1 0.310533 0.792229 0.111383
1159 1 0.592246 0.80465 0.122576
1468 1 0.797925 0.806371 0.113775
145 1 0.873543 0.812874 0.140644
1417 1 0.141681 0.874211 0.121932
1534 1 0.218744 0.865475 0.159467
904 1 0.440313 0.849058 0.161916
1509 1 0.573793 0.879342 0.147591
163 1 0.93939 0.864138 0.121489
1620 1 0.0667311 0.909239 0.13475
1704 1 0.13524 0.940586 0.166195
1274 1 0.210504 0.937436 0.120976
1513 1 0.380742 0.913229 0.143633
1743 1 0.453464 0.941368 0.115439
470 1 0.641897 0.910191 0.130187
1699 1 0.71926 0.889393 0.15218
1999 1 0.785583 0.930481 0.154066
460 1 0.865342 0.889933 0.149895
781 1 0.0188541 0.973089 0.133973
1339 1 0.300763 0.978472 0.140065
1349 1 0.378624 0.991923 0.146463
1665 1 0.560649 0.94967 0.119754
1605 1 0.859448 0.973807 0.161984
1129 1 0.944507 0.957743 0.15903
1937 1 0.000815381 0.0402147 0.204074
1299 1 0.158327 0.0172759 0.191222
621 1 0.315418 0.0493248 0.175179
136 1 0.426923 0.0161747 0.211244
986 1 0.546473 0.0495464 0.199003
292 1 0.687188 0.0280682 0.172194
1114 1 0.917744 0.0335702 0.169918
840 1 0.0918142 0.0649952 0.178274
437 1 0.204744 0.0784872 0.178911
613 1 0.382265 0.0913133 0.198885
1366 1 0.48445 0.087701 0.177472
274 1 0.62242 0.0849647 0.211128
1486 1 0.692394 0.102477 0.184034
837 1 0.0582714 0.159378 0.195793
680 1 0.270625 0.119605 0.177481
864 1 0.8312 0.123076 0.196331
1608 1 0.983771 0.113807 0.209953
21 1 0.205689 0.198432 0.177386
1691 1 0.337039 0.174322 0.169768
1312 1 0.495022 0.169185 0.206378
1452 1 0.579095 0.18199 0.217606
1383 1 0.708483 0.182529 0.182908
354 1 0.912778 0.183569 0.207055
502 1 0.991469 0.200645 0.208378
409 1 0.0814229 0.234913 0.192794
865 1 0.32487 0.251662 0.203594
453 1 0.484244 0.252412 0.214806
1111 1 0.559951 0.256712 0.177438
339 1 0.642545 0.232325 0.181558
38 1 0.72876 0.256708 0.194889
296 1 0.824064 0.26857 0.201836
1601 1 0.903487 0.27066 0.199962
353 1 0.049199 0.31692 0.168588
1968 1 0.130186 0.320588 0.186699
550 1 0.275235 0.310704 0.17839
920 1 0.431273 0.319458 0.208396
1320 1 0.554453 0.323183 0.208848
1805 1 0.630066 0.300308 0.216141
880 1 0.980212 0.280186 0.182923
352 1 0.0720835 0.377261 0.2158
1139 1 0.208143 0.342085 0.199726
173 1 0.288349 0.386302 0.208475
1250 1 0.484816 0.378295 0.209696
1181 1 0.703491 0.387296 0.199762
1858 1 0.986337 0.364394 0.188829
1785 1 0.144121 0.396948 0.199032
320 1 0.338219 0.438241 0.17687
1818 1 0.407012 0.393954 0.186363
1112 1 0.535128 0.426703 0.178184
1703 1 0.800411 0.406389 0.212302
1407 1 0.921074 0.401178 0.213509
1472 1 0.00244407 0.450042 0.172367
1416 1 0.0572878 0.477328 0.219171
1831 1 0.1423 0.48367 0.212051
1804 1 0.259384 0.446208 0.172029
1066 1 0.495117 0.499954 0.219326
1736 1 0.654272 0.474863 0.196864
1900 1 0.742851 0.462133 0.189611
646 1 0.875378 0.468094 0.204576
1514 1 0.00518777 0.545899 0.186881
507 1 0.0885301 0.538626 0.180366
1689 1 0.374052 0.510599 0.200257
169 1 0.577453 0.508212 0.208014
1335 1 0.699964 0.54203 0.183358
1192 1 0.796536 0.52618 0.16815
374 1 0.857022 0.555374 0.219823
1828 1 0.942132 0.501582 0.167916
1433 1 0.158318 0.56626 0.210321
1754 1 0.516046 0.576488 0.193809
1683 1 0.626035 0.557711 0.171572
753 1 0.765908 0.585054 0.215648
115 1 0.903389 0.609756 0.188466
1823 1 0.107204 0.613847 0.168346
493 1 0.187379 0.648168 0.182336
598 1 0.307296 0.641367 0.210981
551 1 0.40091 0.641641 0.206763
257 1 0.829127 0.644722 0.205521
1204 1 0.0553467 0.669573 0.19033
1750 1 0.149453 0.715183 0.214112
81 1 0.230083 0.715445 0.215916
1686 1 0.451738 0.710982 0.18742
1359 1 0.532126 0.667095 0.202778
1093 1 0.607661 0.699558 0.209329
1933 1 0.903775 0.704111 0.219956
979 1 0.981121 0.71725 0.210417
1833 1 0.0574847 0.746675 0.216409
554 1 0.306069 0.750338 0.184722
1635 1 0.539337 0.749968 0.19911
1507 1 0.646836 0.766792 0.198122
1784 1 0.80516 0.766575 0.195991
1021 1 0.0656024 0.829642 0.181539
1581 1 0.133208 0.789488 0.179278
849 1 0.376131 0.801727 0.196996
1625 1 0.513074 0.831923 0.186146
1742 1 0.586605 0.818105 0.19984
1218 1 0.727089 0.796653 0.171979
733 1 0.902272 0.791309 0.209674
1280 1 0.984017 0.797029 0.18725
1600 1 0.158597 0.880705 0.209616
56 1 0.310838 0.8391 0.188303
801 1 0.660781 0.84184 0.174121
750 1 0.785515 0.85566 0.169543
28 1 0.0773236 0.90124 0.215253
1536 1 0.211978 0.942259 0.216481
1353 1 0.277234 0.91636 0.177719
1429 1 0.410555 0.925246 0.22029
1585 1 0.507158 0.91687 0.17019
1658 1 0.903091 0.917589 0.21566
1851 1 0.995902 0.896738 0.179239
1038 1 0.0613684 0.99013 0.193941
368 1 0.341491 0.969453 0.21457
1326 1 0.566903 0.950999 0.215796
585 1 0.651736 0.965929 0.219959
40 1 0.725878 0.957587 0.196122
1403 1 0.794843 0.982449 0.214813
1953 1 0.101972 0.0304981 0.253115
786 1 0.193498 0.0509037 0.253468
419 1 0.257151 0.00992824 0.238125
2019 1 0.356658 0.0485559 0.269187
1955 1 0.498927 0.0495565 0.260561
570 1 0.595257 0.0185205 0.255541
679 1 0.678298 0.0435128 0.248285
1067 1 0.740877 0.000377806 0.271948
1713 1 0.840798 0.046659 0.225762
1624 1 0.0504921 0.0936608 0.241065
147 1 0.138634 0.104137 0.224491
1681 1 0.288108 0.0825926 0.253668
661 1 0.747813 0.0625581 0.226569
514 1 0.903438 0.103208 0.229733
270 1 0.216416 0.131494 0.23886
2028 1 0.340275 0.133594 0.242971
1973 1 0.431271 0.124922 0.252549
822 1 0.550368 0.116746 0.24328
495 1 0.679056 0.15518 0.24701
1778 1 0.766199 0.130126 0.266683
760 1 0.845181 0.130109 0.276259
114 1 0.119655 0.176778 0.244285
155 1 0.278566 0.176942 0.227252
1160 1 0.388565 0.200655 0.233691
1918 1 0.764985 0.196869 0.23152
1342 1 0.842786 0.201398 0.230007
63 1 0.0121221 0.26388 0.254936
410 1 0.159893 0.254111 0.229978
1438 1 0.240627 0.24423 0.240639
1881 1 0.381879 0.268128 0.270877
424 1 0.616474 0.233207 0.26397
521 1 0.699414 0.234502 0.266156
632 1 0.0910563 0.283214 0.26085
720 1 0.334465 0.325109 0.236841
953 1 0.5045 0.304532 0.270165
1904 1 0.734111 0.32317 0.249222
1879 1 0.861668 0.277986 0.270955
1492 1 0.94925 0.328033 0.248379
235 1 0.118826 0.356689 0.273207
1679 1 0.260327 0.335284 0.262394
85 1 0.425391 0.383534 0.266649
1907 1 0.539427 0.382395 0.259381
496 1 0.637223 0.372823 0.243539
806 1 0.868437 0.349083 0.229004
193 1 0.158982 0.440173 0.276096
1148 1 0.216178 0.399043 0.248851
978 1 0.356306 0.415043 0.246785
912 1 0.593691 0.433468 0.229204
276 1 0.66743 0.439651 0.271533
569 1 0.740339 0.411567 0.267316
1162 1 0.85873 0.42063 0.268879
220 1 0.993915 0.407287 0.26246
835 1 0.223235 0.497 0.229898
330 1 0.29253 0.457721 0.265233
1916 1 0.423775 0.46582 0.237888
1309 1 0.535929 0.462413 0.272111
636 1 0.72415 0.494515 0.259768
1475 1 0.810738 0.492129 0.253024
565 1 0.900359 0.497541 0.275184
1371 1 0.972903 0.477831 0.246388
1369 1 0.28165 0.549164 0.230448
2004 1 0.346165 0.510584 0.272967
960 1 0.658755 0.541218 0.252477
2024 1 0.939702 0.551949 0.228863
1638 1 0.0501963 0.592184 0.235493
1350 1 0.220378 0.598751 0.239626
911 1 0.353751 0.58949 0.242819
309 1 0.445012 0.578247 0.236032
1031 1 0.581996 0.595142 0.2369
535 1 0.135768 0.629847 0.246019
391 1 0.449133 0.65649 0.265991
488 1 0.523281 0.630525 0.276037
710 1 0.65703 0.62512 0.223915
1998 1 0.73054 0.660774 0.228691
988 1 0.833013 0.617435 0.277318
625 1 0.975294 0.637898 0.224897
970 1 0.0509615 0.667908 0.275279
1372 1 0.501695 0.718529 0.262555
846 1 0.800813 0.700758 0.242087
479 1 0.304326 0.730955 0.268183
1296 1 0.377696 0.733058 0.230291
1757 1 0.602134 0.749009 0.273025
346 1 0.717715 0.737035 0.236042
645 1 0.794721 0.769429 0.276746
1158 1 0.956436 0.777127 0.26603
186 1 0.0341939 0.820288 0.251569
1707 1 0.115843 0.8276 0.25145
1921 1 0.193082 0.791583 0.230105
401 1 0.272783 0.797664 0.248653
302 1 0.350701 0.792902 0.273253
1217 1 0.448599 0.791697 0.223013
1449 1 0.52255 0.797668 0.258195
308 1 0.677531 0.821223 0.260625
1459 1 0.751968 0.824057 0.23844
1357 1 0.833066 0.82527 0.239207
1762 1 0.245961 0.872558 0.239752
770 1 0.345747 0.88148 0.241266
1458 1 0.407939 0.843389 0.272009
349 1 0.475649 0.878795 0.23717
581 1 0.587375 0.833504 0.276808
433 1 0.946332 0.852884 0.239856
1610 1 0.0119228 0.894794 0.26067
1515 1 0.288794 0.940531 0.266093
973 1 0.54314 0.900704 0.275247
273 1 0.620388 0.891776 0.236374
1722 1 0.703672 0.894196 0.238149
157 1 0.810579 0.902583 0.230191
466 1 0.0455609 0.967787 0.274683
1340 1 0.136037 0.953481 0.251456
808 1 0.479734 0.965671 0.239185
1729 1 0.900201 0.994148 0.240935
1470 1 0.976582 0.959074 0.23215
887 1 0.142882 0.0320164 0.318262
247 1 0.225445 0.0396226 0.326784
1304 1 0.295966 0.00590549 0.309785
1104 1 0.688001 0.0272914 0.32483
878 1 0.993504 0.0269622 0.285326
1697 1 0.0246126 0.0854612 0.328269
1202 1 0.0983741 0.10072 0.305338
1107 1 0.175422 0.108779 0.30269
1875 1 0.35196 0.110639 0.31803
1617 1 0.419041 0.07251 0.318896
1603 1 0.552647 0.0703139 0.316557
282 1 0.626318 0.0962484 0.28518
764 1 0.709044 0.103251 0.31289
1444 1 0.79504 0.0599445 0.296681
240 1 0.874214 0.0600787 0.294329
464 1 0.951132 0.0896144 0.296003
1738 1 0.265833 0.13526 0.310465
511 1 0.494346 0.131682 0.299364
1228 1 0.588415 0.161185 0.303259
800 1 0.936139 0.165096 0.281284
1382 1 0.0174733 0.16935 0.280875
1594 1 0.199156 0.180252 0.298496
1291 1 0.340716 0.189412 0.30064
168 1 0.439751 0.202545 0.294957
139 1 0.521593 0.212 0.289144
638 1 0.667803 0.1777 0.325271
671 1 0.761363 0.204482 0.309835
57 1 0.862933 0.202661 0.307886
1003 1 0.063175 0.229751 0.308137
1808 1 0.151207 0.240643 0.305524
343 1 0.226589 0.257587 0.323296
231 1 0.29922 0.265101 0.28638
708 1 0.655997 0.276849 0.319519
315 1 0.789831 0.274047 0.289674
843 1 0.943121 0.246047 0.297584
393 1 0.029632 0.332474 0.283689
854 1 0.0844895 0.30408 0.331988
299 1 0.181191 0.31037 0.281262
373 1 0.354978 0.32394 0.319454
572 1 0.435301 0.31758 0.316351
688 1 0.59801 0.314871 0.283519
1115 1 0.198116 0.378384 0.323455
1901 1 0.309965 0.385927 0.304989
332 1 0.538186 0.340211 0.332863
458 1 0.681458 0.355237 0.306297
1528 1 0.803073 0.357761 0.278788
858 1 0.874064 0.339377 0.316388
1662 1 0.958835 0.355502 0.329935
930 1 0.0746944 0.421783 0.28088
1285 1 0.48319 0.410968 0.304258
1043 1 0.59696 0.390792 0.311569
792 1 0.926073 0.426247 0.309604
137 1 0.017833 0.466891 0.308586
1516 1 0.101694 0.494981 0.280381
1334 1 0.364977 0.448332 0.319469
1572 1 0.606912 0.488395 0.292147
396 1 0.75895 0.465536 0.32726
167 1 0.00280337 0.544803 0.301542
1822 1 0.177233 0.536096 0.279609
1777 1 0.252492 0.505011 0.306385
1871 1 0.403293 0.524879 0.32496
1816 1 0.481331 0.508999 0.309492
1668 1 0.540759 0.545751 0.280491
1947 1 0.674643 0.507115 0.327702
279 1 0.838459 0.545099 0.315962
1943 1 0.122067 0.571886 0.315197
1519 1 0.201883 0.605305 0.314215
1792 1 0.292662 0.596112 0.296359
150 1 0.361614 0.607357 0.32875
382 1 0.453017 0.590982 0.319409
271 1 0.608805 0.567838 0.328285
1982 1 0.757156 0.558341 0.301456
1262 1 0.919144 0.592325 0.292025
1863 1 0.593758 0.661547 0.286111
272 1 0.700495 0.614747 0.291677
1793 1 0.770496 0.644243 0.325277
1931 1 0.991407 0.621223 0.298506
1632 1 0.170931 0.68796 0.292608
1017 1 0.245243 0.669609 0.278429
472 1 0.358874 0.672769 0.279208
159 1 0.663995 0.696712 0.2817
1558 1 0.738359 0.71169 0.306755
1418 1 0.812142 0.71087 0.328872
724 1 0.878452 0.667066 0.312498
445 1 0.974798 0.701758 0.287432
784 1 0.0749376 0.759611 0.292068
123 1 0.152123 0.761678 0.307272
70 1 0.241487 0.740924 0.312173
187 1 0.427077 0.755232 0.292013
1935 1 0.543207 0.767658 0.326733
1161 1 0.878681 0.74545 0.280252
811 1 0.0130935 0.816458 0.325977
1298 1 0.212052 0.818451 0.301917
614 1 0.726095 0.785422 0.314905
1167 1 0.0805121 0.866392 0.321676
225 1 0.171158 0.885113 0.289287
1332 1 0.297935 0.846301 0.303084
981 1 0.473683 0.835507 0.315929
1140 1 0.64452 0.886022 0.311657
1153 1 0.717633 0.865627 0.313435
303 1 0.792774 0.850644 0.304272
644 1 0.889559 0.835584 0.292912
1379 1 0.113916 0.939669 0.328679
744 1 0.237012 0.907643 0.319275
158 1 0.445755 0.921318 0.297003
952 1 0.758519 0.926453 0.284036
161 1 0.86601 0.912183 0.296694
1582 1 0.940896 0.892462 0.315155
626 1 0.194875 0.972676 0.299728
1618 1 0.364018 0.951347 0.294025
256 1 0.432378 0.999297 0.29345
1595 1 0.51667 0.9812 0.303689
241 1 0.601762 0.946927 0.286686
434 1 0.681873 0.951506 0.292765
1464 1 0.822527 0.979538 0.298408
2008 1 0.943532 0.968528 0.307359
59 1 0.0570612 0.0152473 0.341775
490 1 0.354919 0.0366127 0.351559
1920 1 0.485625 0.0452979 0.357059
311 1 0.604313 0.0129295 0.338704
948 1 0.816192 0.0211062 0.3676
52 1 0.922175 0.0515841 0.371842
1501 1 0.133868 0.0880935 0.376577
1760 1 0.28448 0.0781037 0.367671
491 1 0.648704 0.0744798 0.372542
1667 1 0.751313 0.0707293 0.372678
1389 1 0.0454478 0.147154 0.385378
1156 1 0.209247 0.114304 0.375528
1075 1 0.319698 0.147758 0.382343
1273 1 0.40037 0.164103 0.349684
156 1 0.465912 0.126622 0.372528
284 1 0.540997 0.117659 0.375017
927 1 0.615863 0.147751 0.382561
1529 1 0.704324 0.138878 0.388717
1004 1 0.803734 0.126567 0.340487
934 1 0.887652 0.130818 0.342679
387 1 0.963989 0.125557 0.364196
151 1 0.122511 0.169804 0.337249
1197 1 0.241912 0.21016 0.382102
98 1 0.524814 0.190188 0.366374
1420 1 0.781473 0.187699 0.384297
1727 1 0.999532 0.204738 0.349238
449 1 0.0812772 0.244711 0.386664
377 1 0.325842 0.243886 0.365721
1308 1 0.408268 0.251755 0.343114
1103 1 0.491615 0.264223 0.336994
307 1 0.572522 0.26077 0.335942
1764 1 0.706725 0.232627 0.365781
870 1 0.834331 0.261599 0.364366
372 1 0.0101767 0.288186 0.349808
1384 1 0.160711 0.291089 0.366272
1566 1 0.617591 0.315925 0.377857
1157 1 0.735066 0.301081 0.343426
1775 1 0.90968 0.284753 0.36528
1424 1 0.0475136 0.366216 0.364807
1024 1 0.269658 0.334895 0.349914
1669 1 0.39599 0.384007 0.348867
668 1 0.747383 0.380766 0.350311
2042 1 0.831692 0.33419 0.385093
484 1 0.122865 0.389647 0.345962
1097 1 0.542444 0.416465 0.370903
414 1 0.683068 0.427936 0.346049
1569 1 0.832355 0.397389 0.341406
1015 1 0.90048 0.404107 0.386235
1862 1 0.978762 0.431611 0.367201
1430 1 0.0761315 0.452519 0.360328
45 1 0.199421 0.450966 0.343454
455 1 0.293124 0.463072 0.363933
896 1 0.452467 0.446632 0.364218
657 1 0.551724 0.494712 0.348356
933 1 0.612326 0.448385 0.362834
1056 1 0.872118 0.473509 0.352131
701 1 0.0119964 0.509543 0.371621
1781 1 0.0805188 0.545444 0.379004
826 1 0.140332 0.500357 0.356681
1376 1 0.208444 0.538827 0.361032
165 1 0.321669 0.5403 0.342707
1141 1 0.455673 0.532667 0.383478
206 1 0.801908 0.504429 0.382958
794 1 0.929781 0.524834 0.350715
1005 1 0.249218 0.60635 0.376479
848 1 0.7307 0.59219 0.365668
15 1 0.983065 0.581176 0.37394
2006 1 0.0619946 0.617905 0.346561
363 1 0.150991 0.630518 0.367147
1972 1 0.549727 0.625894 0.348404
2002 1 0.649596 0.64257 0.349298
2033 1 0.870868 0.613544 0.368834
1488 1 0.940391 0.662029 0.358453
1899 1 0.0978503 0.697137 0.333838
178 1 0.218831 0.687101 0.361745
1911 1 0.297493 0.668419 0.335133
1313 1 0.363311 0.721984 0.334762
2044 1 0.429687 0.671412 0.343483
1422 1 0.503264 0.69532 0.334949
1322 1 0.602304 0.709912 0.34706
1186 1 0.723819 0.683102 0.379915
1510 1 0.872097 0.692648 0.388592
1106 1 0.0186677 0.724099 0.357011
829 1 0.080578 0.773522 0.370711
1993 1 0.208243 0.767837 0.379204
298 1 0.293891 0.77593 0.356965
202 1 0.473532 0.762254 0.355945
1214 1 0.674956 0.737394 0.347023
892 1 0.779053 0.760599 0.378678
46 1 0.935073 0.747761 0.352171
446 1 0.150165 0.829307 0.351601
2023 1 0.388899 0.791898 0.348144
96 1 0.508512 0.825348 0.388361
1894 1 0.631602 0.803453 0.334668
65 1 0.840034 0.790594 0.341016
378 1 0.921876 0.825182 0.373673
617 1 0.241885 0.841569 0.378146
317 1 0.370459 0.868796 0.337327
480 1 0.440838 0.879024 0.381656
359 1 0.573354 0.866604 0.36625
615 1 0.656002 0.875803 0.387344
1549 1 0.801632 0.835517 0.387005
415 1 0.869269 0.881252 0.369873
955 1 0.0118359 0.928841 0.339519
1874 1 0.179352 0.895971 0.38569
1413 1 0.307401 0.930247 0.353252
487 1 0.507594 0.906124 0.341203
992 1 0.575477 0.941063 0.358995
633 1 0.796605 0.916147 0.360561
618 1 0.415044 0.95217 0.359514
1548 1 0.491832 0.971029 0.386357
1732 1 0.665313 0.95365 0.367821
823 1 0.748064 0.981199 0.347447
662 1 0.880501 0.983783 0.358152
523 1 0.987761 0.993987 0.37567
1286 1 0.044098 0.00324277 0.442723
1193 1 0.11431 0.0102542 0.402225
1944 1 0.189776 0.0357201 0.397854
1655 1 0.300781 0.007953 0.39987
876 1 0.382271 0.000117623 0.422005
600 1 0.552786 0.0410467 0.42079
1583 1 0.623953 0.0105255 0.420078
968 1 0.702397 0.0135018 0.403467
1987 1 0.795777 0.0433404 0.440629
1215 1 0.873974 0.0488947 0.432425
855 1 0.0453506 0.0720732 0.403462
1070 1 0.335571 0.0829604 0.427346
1073 1 0.409349 0.0730315 0.40324
238 1 0.969111 0.0664787 0.432506
1487 1 0.10645 0.131688 0.432436
108 1 0.183537 0.15862 0.437766
2014 1 0.262085 0.137393 0.435167
923 1 0.378223 0.143283 0.44298
1164 1 0.561138 0.165554 0.437591
512 1 0.783171 0.117777 0.428415
1248 1 0.848855 0.151885 0.40556
771 1 0.913409 0.120726 0.432418
818 1 0.0226875 0.202816 0.436645
861 1 0.161754 0.218384 0.392697
777 1 0.314802 0.19686 0.444066
1752 1 0.427636 0.204512 0.428606
451 1 0.666274 0.178222 0.444146
293 1 0.915236 0.188703 0.389539
1850 1 0.549992 0.277077 0.410381
1542 1 0.619657 0.225253 0.394544
1238 1 0.67398 0.273549 0.422814
1355 1 0.856069 0.22838 0.429082
575 1 0.964422 0.266891 0.420002
1746 1 0.0256684 0.324851 0.433163
1 1 0.10449 0.324243 0.411664
499 1 0.23724 0.285296 0.400617
1029 1 0.354607 0.309308 0.39913
1954 1 0.444816 0.286374 0.420088
1354 1 0.765971 0.291789 0.425555
820 1 0.897964 0.294343 0.441454
2035 1 0.176262 0.358437 0.403682
60 1 0.473995 0.368705 0.391644
882 1 0.555671 0.352957 0.415144
183 1 0.631488 0.376399 0.436826
1799 1 0.692215 0.348837 0.392743
676 1 0.769201 0.366966 0.432196
546 1 0.950138 0.344699 0.405642
1774 1 0.0758568 0.405634 0.429011
475 1 0.146678 0.435188 0.407469
592 1 0.251473 0.404568 0.395891
845 1 0.366891 0.433612 0.397669
1481 1 0.444894 0.427995 0.441894
55 1 0.570276 0.429311 0.444159
1091 1 0.7574 0.439556 0.404284
265 1 0.834383 0.437369 0.425127
1319 1 0.998662 0.413076 0.441767
1889 1 0.0930867 0.489851 0.441564
269 1 0.19183 0.494104 0.423752
905 1 0.516719 0.493724 0.427571
1678 1 0.657418 0.472166 0.417568
898 1 0.935161 0.472812 0.419438
111 1 0.28309 0.526199 0.40625
522 1 0.363414 0.517596 0.407662
264 1 0.593725 0.513969 0.412523
1959 1 0.720322 0.511906 0.394693
505 1 0.872848 0.537186 0.403554
525 1 0.948502 0.550507 0.434996
1163 1 0.159736 0.569255 0.418622
1883 1 0.328614 0.593649 0.403613
675 1 0.40503 0.589768 0.390062
707 1 0.530126 0.560671 0.390848
1801 1 0.658638 0.572052 0.397406
975 1 0.79671 0.589284 0.40966
1351 1 0.00982081 0.666087 0.409739
358 1 0.0863426 0.650115 0.416438
863 1 0.483367 0.620649 0.395162
1002 1 0.58382 0.612508 0.417335
1074 1 0.65552 0.655554 0.428094