ITEM: TIMESTEP
100000
ITEM: NUMBER OF ATOMS
2048
ITEM: BOX BOUNDS pp pp pp
0.0000000000000000e+00 1.1950412657485773e+01
0.0000000000000000e+00 1.1950412657485773e+01
0.0000000000000000e+00 1.1950412657485773e+01
ITEM: ATOMS id type xs ys zs
1 1 0.00636803 0.994254 0.995382
9 1 0.245371 1.00012 0.998225
2 1 0.0550933 0.057698 0.00487493
6 1 0.181091 0.0649382 0.995582
10 1 0.307014 0.0521377 0.994187
14 1 0.436411 0.0700954 0.00436355
22 1 0.69641 0.052887 0.993333
26 1 0.818285 0.0571677 0.978266
30 1 0.941675 0.0568354 0.99632
35 1 0.0521675 0.119314 0.0582375
37 1 0.117409 0.123206 0.994918
41 1 0.243847 0.118023 0.00151468
45 1 0.377806 0.122043 0.992731
49 1 0.502026 0.131077 0.0045496
57 1 0.758358 0.114527 0.011091
61 1 0.869629 0.119931 0.00285941
38 1 0.186299 0.19692 0.00365181
42 1 0.315505 0.187951 0.000158887
46 1 0.43757 0.180247 0.00346851
54 1 0.686842 0.178808 0.00164344
36 1 0.993444 0.181696 0.0525893
69 1 0.123154 0.249401 0.00286288
73 1 0.243233 0.249631 1.00051
75 1 0.314757 0.262083 0.0678339
81 1 0.493826 0.25324 0.993791
89 1 0.744798 0.244615 0.010168
66 1 0.0560394 0.3067 0.994521
70 1 0.180292 0.304096 0.00366213
74 1 0.311155 0.315212 0.00437889
84 1 0.431997 0.317062 0.990776
86 1 0.690372 0.305223 0.00379568
90 1 0.808365 0.307827 0.0129694
96 1 0.879362 0.307111 0.064182
94 1 0.935866 0.316661 0.997398
354 1 0.0635888 0.369428 0.0652014
101 1 0.122509 0.383867 0.9947
105 1 0.250555 0.373896 1.00361
109 1 0.375105 0.378149 0.996641
113 1 0.503517 0.382225 0.989868
98 1 0.0499687 0.438066 0.993949
102 1 0.188297 0.437374 0.00901016
114 1 0.562169 0.438657 0.986298
126 1 0.927081 0.435105 0.998238
149 1 0.631893 0.50318 0.994507
151 1 0.689642 0.503814 0.0626813
157 1 0.871434 0.504222 0.00631205
129 1 0.989955 0.494208 0.997752
133 1 0.131876 0.495159 0.00428193
135 1 0.183708 0.504306 0.0651835
137 1 0.24869 0.49103 0.0105293
134 1 0.177017 0.560778 0.0092426
146 1 0.571502 0.560203 0.999446
160 1 0.874269 0.580008 0.0584789
158 1 0.932853 0.560991 0.00343987
169 1 0.264476 0.625289 -0.00136027
173 1 0.382394 0.625027 0.997465
181 1 0.63377 0.618012 1.00482
189 1 0.879 0.635939 0.999305
161 1 0.99272 0.628469 0.996691
162 1 0.0664442 0.678919 0.00732812
166 1 0.199315 0.681967 0.00400193
174 1 0.445247 0.687041 0.00349942
178 1 0.559491 0.685835 0.995278
184 1 0.629716 0.694022 0.0681822
188 1 0.742988 0.685602 0.0583098
190 1 0.936343 0.692342 0.997933
201 1 0.261474 0.750396 0.995807
217 1 0.746219 0.754172 0.991482
219 1 0.81523 0.754043 0.0612728
221 1 0.874622 0.745091 0.993755
198 1 0.177425 0.803299 0.00538242
206 1 0.433896 0.813402 0.00236885
218 1 0.82337 0.815779 0.00339403
222 1 0.930211 0.805242 0.000779397
225 1 0.991694 0.87165 1.00319
235 1 0.307062 0.863296 0.0625526
241 1 0.506011 0.86651 0.00105366
249 1 0.755948 0.874211 0.996058
253 1 0.881628 0.884742 0.997457
226 1 0.0553754 0.92697 1.00076
240 1 0.34945 0.931848 0.0515485
242 1 0.567006 0.930084 -0.000638768
246 1 0.691794 0.940424 0.993938
250 1 0.815072 0.934203 0.98655
254 1 0.939053 0.945145 0.996833
17 1 0.489517 0.00935143 0.0140812
21 1 0.624594 0.9899 0.997452
25 1 0.760091 0.00541575 1.00155
29 1 0.87436 0.998695 0.989019
3 1 0.0687035 0.992172 0.0525493
7 1 0.191062 0.997286 0.0551487
11 1 0.31854 0.011442 0.0625689
15 1 0.426313 0.00236726 0.0567424
31 1 0.938019 -0.00093373 0.0628048
8 1 0.117642 0.069542 0.0557169
12 1 0.260478 0.0638115 0.0598584
16 1 0.375008 0.0735392 0.0638735
20 1 0.495224 0.0725219 0.0633896
23 1 0.6313 0.0560287 0.0587393
28 1 0.758743 0.0593237 0.0702045
32 1 0.874223 0.0540292 0.0535351
4 1 -0.000955155 0.0595997 0.064819
39 1 0.188182 0.123112 0.0605325
43 1 0.307459 0.131287 0.065484
47 1 0.430691 0.132144 0.0746084
24 1 0.567794 0.132898 0.0619944
55 1 0.689988 0.108659 0.0505148
59 1 0.81036 0.129377 0.0748406
63 1 0.929035 0.115466 0.0578988
40 1 0.105697 0.185939 0.0614989
298 1 0.256569 0.190561 0.0590556
48 1 0.372316 0.187277 0.0619369
51 1 0.500534 0.196129 0.0719801
56 1 0.625043 0.194039 0.0735671
60 1 0.747477 0.176798 0.0641304
64 1 0.870571 0.177181 0.0562511
67 1 0.0526553 0.249776 0.0589875
71 1 0.180705 0.251716 0.0618258
79 1 0.432792 0.244381 0.0569168
83 1 0.568211 0.259593 0.0590835
87 1 0.681597 0.249123 0.0672667
91 1 0.816073 0.246268 0.0687726
95 1 0.933041 0.243761 0.0668409
72 1 0.115465 0.305379 0.0645082
76 1 0.248186 0.314655 0.0639726
80 1 0.384284 0.325673 0.0573432
115 1 0.495032 0.328567 0.0541768
88 1 0.634152 0.319012 0.0612232
92 1 0.749238 0.307202 0.0680416
68 1 1.0008 0.316243 0.0599881
103 1 0.194478 0.379763 0.0659873
107 1 0.316817 0.369197 0.0610468
111 1 0.438927 0.385354 0.0539329
338 1 0.569719 0.36175 0.0630318
119 1 0.694887 0.37042 0.0617541
123 1 0.813635 0.377015 0.0625946
127 1 0.940673 0.375777 0.0596991
104 1 0.124233 0.436411 0.0618589
108 1 0.2568 0.43173 0.0652866
112 1 0.37639 0.438188 0.0573511
116 1 0.496187 0.449817 0.0529033
120 1 0.630302 0.436841 0.0428323
124 1 0.752998 0.432344 0.0585325
99 1 0.991473 0.438554 0.058928
147 1 0.561114 0.499292 0.0558685
128 1 0.864366 0.448083 0.0710456
131 1 0.0683252 0.500242 0.069069
139 1 0.313953 0.500116 0.0572673
143 1 0.429553 0.498805 0.0652336
155 1 0.809699 0.514182 0.0642302
100 1 0.937176 0.49571 0.0597547
136 1 0.127091 0.564934 0.0808457
140 1 0.248374 0.560904 0.0587576
144 1 0.373837 0.559467 0.0628604
148 1 0.510439 0.565549 0.0619206
152 1 0.628636 0.557079 0.0526527
156 1 0.746718 0.578102 0.0633572
132 1 -0.000568703 0.552917 0.0584659
163 1 0.0705713 0.622916 0.0784935
167 1 0.188272 0.618092 0.0684807
171 1 0.309272 0.624745 0.0721056
175 1 0.44527 0.617349 0.059427
179 1 0.56826 0.625272 0.0526502
437 1 0.622833 0.62485 0.134629
183 1 0.678186 0.631097 0.0732287
187 1 0.814199 0.636057 0.0605919
191 1 0.939033 0.628677 0.0579284
164 1 0.0100432 0.680568 0.0714553
168 1 0.133483 0.680255 0.0608424
172 1 0.254339 0.681864 0.0714548
176 1 0.368308 0.685847 0.0517514
180 1 0.491943 0.690499 0.0650346
192 1 0.873147 0.687099 0.0746292
195 1 0.063325 0.746423 0.0662729
199 1 0.185171 0.740793 0.0606292
203 1 0.310045 0.751551 0.0605472
207 1 0.44178 0.753471 0.0631602
211 1 0.567457 0.751034 0.0596589
473 1 0.690613 0.750208 0.0571366
223 1 0.942604 0.737901 0.0613559
196 1 0.991778 0.804512 0.0682894
200 1 0.124888 0.795387 0.0684884
204 1 0.245783 0.810044 0.0600049
208 1 0.372405 0.806857 0.0692146
212 1 0.496912 0.81662 0.0648685
216 1 0.627353 0.818898 0.0665071
220 1 0.749804 0.815247 0.0603897
224 1 0.875726 0.81051 0.0602649
227 1 0.0727868 0.870311 0.0714792
231 1 0.173025 0.859829 0.0588878
239 1 0.441489 0.883121 0.0664756
210 1 0.558532 0.875841 0.0694445
247 1 0.6871 0.877877 0.0616511
251 1 0.802354 0.878149 0.0633797
255 1 0.930455 0.86965 0.064116
232 1 0.128075 0.930888 0.0526869
244 1 0.495138 0.939404 0.0589436
248 1 0.634613 0.936376 0.0586672
252 1 0.74434 0.941691 0.0543379
256 1 0.87133 0.940568 0.0581202
228 1 0.00622621 0.943288 0.0620814
236 1 0.264027 0.936934 0.0580224
19 1 0.559463 0.999274 0.0562299
277 1 0.695136 0.00924426 0.068371
27 1 0.813211 0.994806 0.0673039
257 1 0.00931916 1.00079 0.120541
270 1 0.430495 0.0661766 0.12485
285 1 0.872582 1.00006 0.131544
258 1 0.0602155 0.0666033 0.131098
262 1 0.180874 0.0709083 0.125487
266 1 0.311962 0.0643483 0.127444
274 1 0.561822 0.0679047 0.126114
278 1 0.698139 0.0691731 0.122789
282 1 0.814014 0.0612434 0.130716
286 1 0.932179 0.0608272 0.121902
293 1 0.121504 0.130629 0.126105
297 1 0.247378 0.127519 0.123578
301 1 0.36069 0.132894 0.127727
305 1 0.491233 0.135236 0.12338
309 1 0.626957 0.1224 0.120586
313 1 0.753014 0.129859 0.134997
317 1 0.872252 0.12024 0.128233
289 1 0.999866 0.125908 0.115518
290 1 0.0495079 0.188214 0.119048
294 1 0.184419 0.184969 0.110978
44 1 0.310628 0.200532 0.119678
302 1 0.429464 0.198566 0.123773
306 1 0.563196 0.192282 0.127397
310 1 0.684337 0.184572 0.129215
314 1 0.821702 0.191483 0.134033
318 1 0.938562 0.17816 0.117326
321 1 0.99271 0.245408 0.126304
325 1 0.120997 0.241807 0.125077
326 1 0.232277 0.258996 0.1198
333 1 0.380982 0.259784 0.116573
52 1 0.49115 0.256978 0.121619
341 1 0.629269 0.246017 0.140104
345 1 0.757086 0.246499 0.123221
349 1 0.88357 0.259022 0.129252
322 1 0.0544364 0.306313 0.120789
327 1 0.172492 0.3099 0.127863
330 1 0.319688 0.322579 0.129042
334 1 0.439995 0.321209 0.115283
340 1 0.562152 0.301045 0.130005
342 1 0.688721 0.320834 0.131686
346 1 0.814637 0.307996 0.121701
350 1 0.94212 0.315668 0.124411
357 1 0.127879 0.374239 0.116742
365 1 0.380545 0.389781 0.120379
369 1 0.505847 0.375646 0.119246
373 1 0.623457 0.369596 0.132178
377 1 0.740998 0.383905 0.13063
381 1 0.876223 0.375516 0.110535
353 1 0.00235062 0.380449 0.118119
385 1 0.0667059 0.437169 0.12421
361 1 0.25756 0.372847 0.116755
362 1 0.32313 0.443604 0.117987
366 1 0.44655 0.440457 0.116821
370 1 0.577789 0.437716 0.115049
374 1 0.679491 0.447756 0.121277
378 1 0.801547 0.438776 0.126702
382 1 0.937921 0.437773 0.127755
358 1 0.180392 0.441463 0.126125
393 1 0.247986 0.493354 0.128987
397 1 0.378865 0.502392 0.129028
415 1 0.994162 0.516571 0.132093
389 1 0.125494 0.499616 0.127381
401 1 0.510087 0.494413 0.119392
405 1 0.62269 0.508477 0.122611
409 1 0.744899 0.501086 0.131179
159 1 0.873133 0.52319 0.114874
386 1 0.0620842 0.554026 0.131839
390 1 0.189086 0.556694 0.12513
394 1 0.316167 0.554811 0.123879
398 1 0.453865 0.568515 0.123446
402 1 0.56211 0.564721 0.126239
406 1 0.696224 0.568271 0.129376
410 1 0.80103 0.5647 0.123895
414 1 0.937482 0.585042 0.137213
417 1 0.00926105 0.624945 0.130373
421 1 0.119574 0.627681 0.13794
425 1 0.247456 0.617728 0.127625
429 1 0.38042 0.619847 0.118824
433 1 0.506842 0.63025 0.12557
441 1 0.748022 0.631116 0.125978
445 1 0.860909 0.627697 0.128762
418 1 0.0639403 0.685872 0.131584
422 1 0.192528 0.678483 0.118685
426 1 0.323045 0.682992 0.1289
430 1 0.439239 0.687506 0.127666
434 1 0.568355 0.697165 0.126283
438 1 0.684943 0.68488 0.136263
442 1 0.806701 0.689307 0.124395
446 1 0.931628 0.681407 0.13377
449 1 0.00746545 0.745799 0.122585
453 1 0.12864 0.733217 0.124228
457 1 0.255048 0.747454 0.128698
461 1 0.377247 0.746061 0.124558
465 1 0.500822 0.746368 0.124058
469 1 0.630222 0.755192 0.120175
474 1 0.740599 0.754449 0.124737
479 1 0.877354 0.755055 0.142077
450 1 0.0620267 0.812513 0.124052
454 1 0.193787 0.801382 0.122069
458 1 0.314259 0.803669 0.124986
462 1 0.433626 0.811894 0.11988
466 1 0.562625 0.80903 0.120786
470 1 0.686522 0.812154 0.125863
477 1 0.810891 0.818494 0.123992
478 1 0.930413 0.815928 0.122514
481 1 0.99347 0.872231 0.114638
485 1 0.12643 0.868266 0.131583
489 1 0.253707 0.873886 0.120633
493 1 0.372523 0.865913 0.122503
497 1 0.499305 0.878815 0.134544
501 1 0.621991 0.883028 0.122828
505 1 0.741016 0.885772 0.123712
509 1 0.87174 0.876602 0.129361
482 1 0.0587633 0.935355 0.123606
486 1 0.186663 0.933877 0.11618
490 1 0.315482 0.939177 0.125559
494 1 0.434011 0.943068 0.125855
243 1 0.558373 0.958863 0.123823
502 1 0.690171 0.951175 0.123273
506 1 0.812175 0.939299 0.126814
261 1 0.130642 0.0096866 0.109863
265 1 0.246334 0.00726647 0.11644
269 1 0.371962 0.00116568 0.120242
273 1 0.494193 0.00718912 0.117798
498 1 0.626632 0.00164983 0.117347
281 1 0.749696 0.00228564 0.128491
510 1 0.929016 0.937184 0.11714
263 1 0.201714 0.00250402 0.188078
268 1 0.247032 0.0703157 0.182195
267 1 0.310566 0.00262198 0.195006
276 1 0.496842 0.0640468 0.188738
279 1 0.693677 0.00547665 0.195487
260 1 0.992251 0.0679136 0.181207
264 1 0.124408 0.0597503 0.188353
272 1 0.368835 0.0659165 0.190977
280 1 0.623681 0.0641414 0.182124
284 1 0.750416 0.062424 0.19891
283 1 0.881197 0.0639356 0.201057
291 1 0.0605909 0.121219 0.19123
295 1 0.195386 0.131852 0.189949
299 1 0.304447 0.156422 0.186193
303 1 0.435203 0.126857 0.187237
307 1 0.552361 0.1269 0.180434
311 1 0.675451 0.125414 0.191901
315 1 0.807447 0.120271 0.194019
319 1 0.937916 0.127891 0.185595
296 1 0.123966 0.184919 0.187705
300 1 0.242021 0.199749 0.170825
304 1 0.383363 0.190024 0.190374
308 1 0.493568 0.1841 0.186516
312 1 0.619976 0.182539 0.189281
316 1 0.743064 0.196312 0.186011
320 1 0.883779 0.191427 0.183794
292 1 0.993338 0.187214 0.184137
323 1 0.0544037 0.248458 0.182742
329 1 0.178405 0.250897 0.186495
331 1 0.313518 0.260375 0.180225
335 1 0.429464 0.259313 0.179564
337 1 0.561565 0.245844 0.196161
343 1 0.68831 0.261141 0.19428
347 1 0.813603 0.253227 0.183088
351 1 0.936285 0.251823 0.196083
324 1 0.999615 0.312014 0.186702
328 1 0.112695 0.299173 0.18251
332 1 0.24328 0.31427 0.18454
336 1 0.373307 0.320569 0.188281
339 1 0.499212 0.31446 0.191456
344 1 0.625258 0.31499 0.192356
348 1 0.756354 0.31349 0.186813
352 1 0.880239 0.312893 0.201215
355 1 0.0603141 0.366149 0.183644
359 1 0.18857 0.373397 0.17603
363 1 0.304768 0.380935 0.182034
367 1 0.442041 0.375391 0.175808
371 1 0.559375 0.393235 0.192659
375 1 0.685891 0.387957 0.190365
379 1 0.822276 0.368863 0.17735
383 1 0.94115 0.372343 0.188394
356 1 0.0110052 0.429058 0.185269
364 1 0.248813 0.431708 0.18391
368 1 0.370253 0.435181 0.186469
372 1 0.501685 0.444818 0.18686
376 1 0.626722 0.445592 0.181507
380 1 0.747225 0.44497 0.191887
413 1 0.866066 0.435543 0.180374
387 1 0.0773462 0.497425 0.186832
360 1 0.123193 0.426275 0.191998
399 1 0.42639 0.492487 0.195706
411 1 0.814537 0.49804 0.176878
670 1 0.924673 0.506101 0.184371
391 1 0.183978 0.493373 0.185329
395 1 0.314245 0.494646 0.186746
400 1 0.373787 0.556352 0.191872
403 1 0.560064 0.498843 0.17938
407 1 0.681783 0.503939 0.191074
412 1 0.745702 0.557498 0.190678
392 1 0.13391 0.56378 0.190402
396 1 0.251952 0.555403 0.18327
404 1 0.504128 0.561254 0.182579
408 1 0.623891 0.556876 0.18546
416 1 0.864434 0.569202 0.184488
388 1 0.998637 0.570757 0.194225
419 1 0.0644746 0.62499 0.197686
423 1 0.183409 0.635179 0.196579
427 1 0.310495 0.622206 0.180225
431 1 0.443042 0.615717 0.191917
435 1 0.56476 0.624608 0.193822
439 1 0.690348 0.617569 0.195667
443 1 0.803475 0.628398 0.189912
447 1 0.936303 0.629041 0.201842
420 1 0.996367 0.685634 0.192893
424 1 0.122906 0.691033 0.199077
428 1 0.254109 0.68515 0.188894
432 1 0.377969 0.686418 0.188934
436 1 0.505935 0.688885 0.196849
440 1 0.620228 0.683224 0.197879
444 1 0.74788 0.681089 0.190168
448 1 0.870581 0.682287 0.188454
451 1 0.0650193 0.742605 0.206841
455 1 0.191696 0.741065 0.18324
459 1 0.310521 0.746538 0.188285
463 1 0.433861 0.750975 0.187669
467 1 0.560177 0.749125 0.186137
471 1 0.689503 0.742049 0.194761
733 1 0.800781 0.754803 0.189771
452 1 0.945916 0.744386 0.189378
737 1 0.00577187 0.809886 0.17977
456 1 0.133816 0.80178 0.184208
460 1 0.254136 0.81091 0.183322
464 1 0.376536 0.805272 0.192673
468 1 0.501646 0.813435 0.181431
472 1 0.626093 0.813763 0.179464
476 1 0.742222 0.819522 0.179157
480 1 0.868118 0.821881 0.186698
483 1 0.0535148 0.891353 0.188289
487 1 0.183474 0.890491 0.184474
491 1 0.312381 0.874243 0.179086
495 1 0.436073 0.881141 0.183974
499 1 0.565283 0.888276 0.183165
503 1 0.682748 0.881533 0.181195
507 1 0.794981 0.877703 0.186567
511 1 0.946192 0.88492 0.180984
484 1 0.992974 0.948971 0.182261
488 1 0.125181 0.952101 0.168454
492 1 0.25263 0.940051 0.170686
496 1 0.372627 0.928048 0.179565
500 1 0.494843 0.942244 0.181139
504 1 0.625397 0.946348 0.181232
508 1 0.750654 0.945455 0.184141
512 1 0.871877 0.93451 0.186883
259 1 0.061398 0.0015781 0.192779
271 1 0.432043 0.00443103 0.179796
275 1 0.556077 0.00650554 0.190421
762 1 0.817372 0.0023135 0.189891
287 1 0.935717 0.00323809 0.184104
517 1 0.119516 0.0112444 0.253237
526 1 0.429025 0.0649761 0.246621
529 1 0.488766 0.00215653 0.245973
530 1 0.570909 0.0648498 0.246726
514 1 0.059039 0.0694952 0.253905
518 1 0.191858 0.0751095 0.245103
522 1 0.307713 0.0669584 0.247516
534 1 0.680655 0.0722277 0.248511
538 1 0.817538 0.0631778 0.252378
542 1 0.952807 0.0660431 0.249397
549 1 0.127826 0.12503 0.24078
553 1 0.251894 0.140206 0.246724
557 1 0.365823 0.128179 0.248237
561 1 0.494507 0.126405 0.251582
565 1 0.617422 0.134568 0.25566
569 1 0.744047 0.137381 0.246183
288 1 0.87742 0.135071 0.25014
545 1 0.999083 0.130869 0.248558
546 1 0.0631462 0.181177 0.243905
550 1 0.183099 0.194101 0.246776
554 1 0.325811 0.205247 0.247892
558 1 0.442275 0.193193 0.250523
562 1 0.553271 0.182752 0.249088
566 1 0.684894 0.190014 0.240733
570 1 0.810589 0.192258 0.243499
574 1 0.939304 0.187082 0.249525
577 1 -0.000182516 0.243947 0.247219
581 1 0.122115 0.249385 0.248666
585 1 0.246501 0.245321 0.247728
589 1 0.385949 0.260165 0.244569
593 1 0.50354 0.255205 0.256424
597 1 0.628585 0.252477 0.250432
601 1 0.750366 0.25073 0.256104
605 1 0.873087 0.255112 0.265608
578 1 0.0649225 0.31472 0.259504
582 1 0.186134 0.304704 0.244546
586 1 0.304994 0.304839 0.258369
590 1 0.433464 0.332076 0.242722
594 1 0.562926 0.325756 0.246337
598 1 0.686618 0.317798 0.246172
602 1 0.813913 0.306693 0.24775
637 1 0.94264 0.312697 0.251939
609 1 -0.00249675 0.374665 0.241341
613 1 0.126707 0.366225 0.253023
617 1 0.230465 0.378065 0.248231
621 1 0.357043 0.372526 0.243499
625 1 0.49801 0.373956 0.24959
629 1 0.623562 0.380244 0.239637
633 1 0.757792 0.373202 0.240003
384 1 0.876429 0.371399 0.267905
610 1 0.0667785 0.441059 0.249369
614 1 0.176418 0.438365 0.257225
618 1 0.306097 0.439392 0.250609
622 1 0.429604 0.428774 0.244837
626 1 0.568731 0.448778 0.256258
630 1 0.67963 0.439854 0.259216
634 1 0.825432 0.438197 0.246851
638 1 0.922712 0.430796 0.240547
657 1 0.491368 0.496836 0.256733
661 1 0.623815 0.506023 0.246928
665 1 0.740529 0.495048 0.256235
669 1 0.87945 0.500872 0.249843
641 1 1.0047 0.496107 0.239037
642 1 0.0572294 0.561142 0.249956
645 1 0.128759 0.505011 0.248873
649 1 0.245191 0.489451 0.238435
653 1 0.368608 0.487992 0.254408
654 1 0.434696 0.557008 0.252346
662 1 0.693315 0.560525 0.259377
646 1 0.193414 0.555342 0.244758
650 1 0.308865 0.549525 0.251284
658 1 0.559889 0.551682 0.23959
666 1 0.813424 0.554172 0.248021
703 1 0.93024 0.55984 0.251174
677 1 0.128905 0.616663 0.251331
681 1 0.263266 0.618175 0.242854
685 1 0.3784 0.623361 0.252907
689 1 0.488813 0.628362 0.256009
693 1 0.627603 0.615394 0.24649
697 1 0.755905 0.611428 0.25667
701 1 0.862924 0.6352 0.256502
673 1 0.993174 0.615145 0.259914
674 1 0.0670433 0.681179 0.26253
678 1 0.198307 0.694305 0.250786
682 1 0.321965 0.686607 0.249424
686 1 0.425146 0.687336 0.259624
690 1 0.563545 0.681173 0.256125
694 1 0.700635 0.670897 0.255568
475 1 0.807438 0.690528 0.24937
702 1 0.937808 0.692751 0.248378
705 1 0.00120104 0.76669 0.24688
709 1 0.125539 0.746188 0.25908
713 1 0.256435 0.748842 0.252201
717 1 0.380988 0.759795 0.258441
721 1 0.483966 0.743694 0.249804
725 1 0.623155 0.747966 0.252859
729 1 0.749803 0.751144 0.252982
704 1 0.86791 0.756049 0.239136
706 1 0.0622414 0.825669 0.239318
710 1 0.188845 0.819329 0.242171
714 1 0.313449 0.823766 0.25415
718 1 0.435915 0.819813 0.262014
722 1 0.569302 0.805877 0.253088
726 1 0.68066 0.811918 0.246918
730 1 0.802789 0.814348 0.256695
734 1 0.93901 0.812336 0.237489
741 1 0.123131 0.875192 0.2465
745 1 0.239598 0.882835 0.240727
749 1 0.36957 0.875408 0.235013
753 1 0.517081 0.868879 0.249595
757 1 0.620274 0.871062 0.244214
761 1 0.749324 0.879061 0.253134
736 1 0.877795 0.874936 0.244115
739 1 0.00366181 0.88657 0.256906
738 1 0.0747193 0.94489 0.250512
742 1 0.173727 0.941322 0.243357
746 1 0.306996 0.934574 0.238537
750 1 0.437461 0.931225 0.248935
754 1 0.551059 0.9516 0.246201
758 1 0.688321 0.939225 0.239769
765 1 0.823083 0.936368 0.255178
766 1 0.945867 0.941167 0.247517
521 1 0.257419 3.08572e-05 0.256064
525 1 0.374875 -0.00256077 0.240436
533 1 0.627664 0.00100162 0.244728
537 1 0.753438 0.99421 0.256905
541 1 0.880744 0.996628 0.25273
513 1 0.011465 0.995501 0.259276
519 1 0.187141 0.995564 0.297528
524 1 0.245922 0.0578546 0.309291
536 1 0.619835 0.0629861 0.314286
540 1 0.752089 0.0610552 0.311465
539 1 0.812742 0.999533 0.309063
520 1 0.13603 0.0653859 0.309093
528 1 0.366891 0.073784 0.309722
532 1 0.493849 0.0686533 0.314006
544 1 0.875002 0.0593028 0.312793
516 1 0.0132085 0.0674524 0.323216
547 1 0.0756028 0.121652 0.319638
551 1 0.18502 0.129471 0.310156
555 1 0.310617 0.133905 0.304304
559 1 0.434223 0.127043 0.304529
563 1 0.553673 0.131041 0.312288
567 1 0.689581 0.136762 0.310337
571 1 0.825712 0.120434 0.312206
573 1 0.938826 0.120442 0.303069
552 1 0.121011 0.185545 0.305756
556 1 0.244753 0.185463 0.319674
560 1 0.372161 0.186016 0.311699
564 1 0.49215 0.185135 0.312648
568 1 0.621633 0.196925 0.30905
572 1 0.756955 0.182601 0.314748
576 1 0.873514 0.185656 0.317943
575 1 0.0119723 0.182568 0.312082
579 1 0.0671709 0.249956 0.313733
583 1 0.19111 0.25095 0.306654
587 1 0.302187 0.251457 0.321075
591 1 0.432175 0.250198 0.310548
595 1 0.566425 0.267956 0.307913
599 1 0.686338 0.249966 0.316206
603 1 0.816885 0.250386 0.323172
607 1 0.946288 0.254936 0.31492
606 1 0.00542195 0.306789 0.318306
584 1 0.124096 0.30522 0.31775
588 1 0.242528 0.316034 0.32122
592 1 0.374669 0.308977 0.315394
596 1 0.494148 0.314683 0.315638
600 1 0.634434 0.316572 0.315911
604 1 0.754514 0.320227 0.29903
608 1 0.874969 0.312307 0.321946
611 1 0.0623617 0.37821 0.307265
615 1 0.190754 0.372987 0.324857
619 1 0.296273 0.381084 0.313537
623 1 0.42239 0.371848 0.31158
627 1 0.57693 0.378941 0.312448
631 1 0.693403 0.375569 0.318265
635 1 0.813036 0.374967 0.315262
639 1 0.94289 0.366406 0.311357
616 1 0.122235 0.446397 0.312652
620 1 0.237529 0.434722 0.31126
624 1 0.369054 0.43219 0.314492
628 1 0.496499 0.435737 0.307709
632 1 0.63195 0.44022 0.321033
636 1 0.75495 0.429009 0.302367
640 1 0.877438 0.439747 0.314443
612 1 0.987686 0.441875 0.297561
659 1 0.553047 0.491443 0.317712
663 1 0.693632 0.500191 0.322718
667 1 0.820495 0.495658 0.306971
671 1 0.930994 0.503527 0.317456
643 1 0.0546316 0.505423 0.322912
647 1 0.188311 0.503249 0.306888
651 1 0.31044 0.488069 0.313317
655 1 0.42925 0.493945 0.320673
672 1 0.868319 0.559687 0.30929
648 1 0.128013 0.562123 0.306724
652 1 0.252258 0.55416 0.305957
656 1 0.368405 0.562081 0.307291
660 1 0.492775 0.55803 0.314456
664 1 0.634849 0.548427 0.319864
668 1 0.758555 0.551832 0.314948
644 1 0.994707 0.561615 0.31522
675 1 0.0612094 0.620256 0.31313
679 1 0.196386 0.621066 0.303028
683 1 0.314915 0.620466 0.31053
687 1 0.440977 0.619787 0.32604
691 1 0.557253 0.613373 0.307967
695 1 0.692344 0.625428 0.322864
698 1 0.806324 0.621898 0.320635
958 1 0.921847 0.622687 0.310862
680 1 0.138377 0.687672 0.315775
684 1 0.254573 0.692117 0.318493
688 1 0.373776 0.682562 0.322786
692 1 0.492053 0.682756 0.312757
696 1 0.630579 0.685305 0.308464
700 1 0.749291 0.681798 0.326656
699 1 0.874475 0.693735 0.311956
676 1 0.986926 0.681995 0.310898
707 1 0.0616343 0.747883 0.309433
711 1 0.191861 0.757806 0.308928
715 1 0.320436 0.741757 0.312444
719 1 0.437786 0.748833 0.322562
723 1 0.571367 0.748327 0.316384
727 1 0.689551 0.750529 0.310428
731 1 0.809413 0.757145 0.314104
735 1 0.937177 0.76429 0.30255
712 1 0.11634 0.81343 0.305128
716 1 0.250199 0.813146 0.312328
720 1 0.369941 0.822055 0.318602
724 1 0.508677 0.798951 0.311352
728 1 0.638043 0.818725 0.313553
732 1 0.745909 0.809733 0.316133
986 1 0.871824 0.80822 0.309021
708 1 0.00201839 0.818722 0.310712
997 1 0.068241 0.880487 0.3096
743 1 0.185488 0.872501 0.305524
747 1 0.315225 0.881041 0.316517
751 1 0.437483 0.879972 0.317771
755 1 0.569728 0.863669 0.310117
759 1 0.689926 0.879113 0.308672
764 1 0.803816 0.878003 0.313061
767 1 0.933053 0.86266 0.309717
748 1 0.244946 0.926679 0.309805
752 1 0.372163 0.934791 0.294107
756 1 0.496867 0.944923 0.303275
760 1 0.62431 0.939537 0.30517
1017 1 0.740557 0.939517 0.318078
768 1 0.886445 0.934788 0.305032
515 1 0.06644 0.993129 0.316248
744 1 0.125293 0.94409 0.316189
523 1 0.314122 0.0101163 0.315724
527 1 0.430368 0.995248 0.314575
531 1 0.557645 0.00479163 0.310764
535 1 0.686721 0.000420323 0.320553
543 1 0.943864 0.00552616 0.31706
740 1 0.0120172 0.940673 0.313874
773 1 0.136376 0.0055696 0.370206
778 1 0.309577 0.0743605 0.3686
782 1 0.426394 0.0654248 0.368745
789 1 0.61616 1.00228 0.367806
769 1 0.0105023 0.998958 0.381217
770 1 0.0769116 0.0608013 0.375788
774 1 0.197433 0.0632615 0.375728
786 1 0.558902 0.061755 0.365328
790 1 0.691921 0.0622667 0.378848
794 1 0.814803 0.0582887 0.369472
830 1 0.938438 0.0636989 0.374182
805 1 0.136579 0.114985 0.384372
809 1 0.249964 0.130083 0.381949
813 1 0.377988 0.129597 0.375821
817 1 0.490483 0.122881 0.371665
821 1 0.621826 0.130925 0.358762
825 1 0.744894 0.131731 0.377612
829 1 0.883485 0.12732 0.373359
801 1 0.00571663 0.134288 0.386573
548 1 0.0667274 0.189689 0.386479
806 1 0.17235 0.189912 0.366155
810 1 0.306814 0.182932 0.369901
814 1 0.448485 0.196314 0.380295
818 1 0.562975 0.188972 0.368736
822 1 0.684991 0.193567 0.374425
826 1 0.807062 0.184251 0.379775
833 1 0.939646 0.183116 0.372514
580 1 0.996018 0.241462 0.374917
802 1 0.123883 0.259914 0.39079
841 1 0.236378 0.245493 0.376764
845 1 0.377486 0.243432 0.367704
849 1 0.504222 0.249125 0.376812
853 1 0.625335 0.252094 0.383289
857 1 0.751295 0.244543 0.372204
861 1 0.877471 0.249117 0.37651
834 1 0.0627923 0.30606 0.374279
838 1 0.187331 0.307868 0.380281
842 1 0.307813 0.301363 0.382055
846 1 0.430418 0.322661 0.375354
850 1 0.559409 0.313523 0.376618
854 1 0.699318 0.311812 0.367958
858 1 0.808751 0.315766 0.372858
862 1 0.947885 0.312689 0.376181
865 1 0.00391082 0.36945 0.369569
869 1 0.117427 0.382262 0.378562
873 1 0.253808 0.376429 0.390287
877 1 0.369771 0.380499 0.377273
881 1 0.483674 0.382406 0.374814
885 1 0.628025 0.378929 0.387215
889 1 0.757317 0.385699 0.378188
893 1 0.887659 0.376165 0.378977
870 1 0.188871 0.429597 0.383884
874 1 0.308183 0.432988 0.379149
878 1 0.431603 0.440633 0.376454
882 1 0.556711 0.437533 0.373135
886 1 0.687836 0.446474 0.385256
890 1 0.823702 0.439564 0.377134
894 1 0.948537 0.431842 0.382377
866 1 0.0556924 0.438038 0.378085
905 1 0.258394 0.496765 0.381718
917 1 0.609513 0.498862 0.383342
901 1 0.125135 0.487175 0.383474
909 1 0.3661 0.492877 0.376798
913 1 0.501248 0.505689 0.38274
947 1 0.559081 0.56162 0.366987
918 1 0.683763 0.554835 0.385492
921 1 0.759484 0.492755 0.372602
925 1 0.870288 0.506262 0.381188
897 1 0.994198 0.499641 0.378018
898 1 0.0768224 0.572099 0.380336
902 1 0.190989 0.560069 0.368573
906 1 0.313459 0.554059 0.369854
910 1 0.429109 0.552069 0.381698
922 1 0.802998 0.559001 0.393091
926 1 0.933589 0.576758 0.380856
933 1 0.144088 0.625586 0.367597
937 1 0.251061 0.619766 0.3636
941 1 0.377069 0.621898 0.373714
945 1 0.504931 0.625603 0.373618
914 1 0.625952 0.620586 0.382471
953 1 0.751496 0.617422 0.382966
957 1 0.866108 0.623857 0.378397
929 1 0.00918998 0.62193 0.379807
930 1 0.0515222 0.687214 0.36895
934 1 0.198483 0.693064 0.374076
938 1 0.311454 0.683167 0.381723
942 1 0.439681 0.685069 0.375941
946 1 0.562378 0.694062 0.371916
949 1 0.688447 0.687567 0.379704
954 1 0.814569 0.688503 0.378623
989 1 0.939096 0.680193 0.377657
965 1 0.129994 0.752412 0.369419
969 1 0.255956 0.757456 0.378993
973 1 0.37706 0.751969 0.374624
977 1 0.496947 0.753463 0.379761
981 1 0.631242 0.750293 0.385112
950 1 0.757029 0.750335 0.383312
985 1 0.873764 0.748777 0.369449
961 1 0.995002 0.744444 0.363413
962 1 0.0672809 0.813731 0.373456
966 1 0.188634 0.824046 0.375689
970 1 0.314627 0.818384 0.396807
974 1 0.444563 0.81358 0.376182
978 1 0.563667 0.810753 0.377653
982 1 0.689881 0.817254 0.38213
763 1 0.805522 0.813604 0.373434
990 1 0.928977 0.811553 0.371957
993 1 0.00433627 0.871439 0.37145
968 1 0.123107 0.883413 0.374214
1001 1 0.250112 0.881715 0.381316
1005 1 0.374895 0.883316 0.377332
1009 1 0.50336 0.872058 0.368703
1013 1 0.635127 0.876812 0.370424
1018 1 0.747535 0.87716 0.37546
1021 1 0.875363 0.876276 0.382497
998 1 0.194628 0.948232 0.368159
1002 1 0.307691 0.940295 0.367683
1006 1 0.436838 0.940372 0.376481
1010 1 0.565209 0.934708 0.37213
1014 1 0.689861 0.936344 0.375725
1019 1 0.812618 0.938909 0.372604
1022 1 0.941367 0.92132 0.371903
994 1 0.0648238 0.935643 0.377235
777 1 0.255152 0.00476125 0.373227
781 1 0.372392 0.00128932 0.368224
785 1 0.494323 0.99619 0.364743
796 1 0.759079 -0.00187313 0.374775
797 1 0.878267 0.996112 0.363437
771 1 0.0695305 0.00642884 0.438679
775 1 0.186725 0.994394 0.437978
784 1 0.3628 0.0605684 0.425017
787 1 0.555542 0.00736354 0.422794
1050 1 0.7464 0.0646282 0.439623
776 1 0.136197 0.0526556 0.4383
780 1 0.252207 0.0512115 0.451707
811 1 0.304097 0.115997 0.437336
788 1 0.497712 0.0651651 0.436882
792 1 0.615342 0.0638583 0.426794
1053 1 0.873069 0.0621 0.43518
798 1 0.011254 0.0597567 0.4442
803 1 0.0735135 0.118004 0.4391
807 1 0.190233 0.133116 0.448864
815 1 0.426927 0.11827 0.439838
819 1 0.56726 0.128502 0.428334
823 1 0.689383 0.124309 0.434925
827 1 0.817921 0.12286 0.428608
831 1 0.934923 0.118826 0.433206
804 1 0.987607 0.19064 0.445207
808 1 0.131208 0.186772 0.44657
812 1 0.2485 0.195478 0.438595
816 1 0.384597 0.192508 0.429582
820 1 0.500985 0.181349 0.446284
824 1 0.626215 0.18602 0.431245
828 1 0.750978 0.188352 0.440116
832 1 0.88311 0.194742 0.43643
835 1 0.0591075 0.247143 0.447311
839 1 0.184135 0.246144 0.438334
843 1 0.320941 0.240818 0.440835
847 1 0.441736 0.255796 0.431584
851 1 0.567629 0.254158 0.43806
855 1 0.696473 0.260615 0.431977
859 1 0.821683 0.252228 0.439263
863 1 0.944376 0.260692 0.442924
837 1 0.118644 0.322914 0.441354
844 1 0.238515 0.309377 0.443148
848 1 0.373284 0.316848 0.431983
852 1 0.494244 0.318237 0.426339
856 1 0.631466 0.309321 0.440285
860 1 0.755973 0.324319 0.433546
864 1 0.878262 0.310922 0.435807
836 1 0.0043287 0.313375 0.437668
867 1 0.0577397 0.378288 0.431317
871 1 0.184618 0.369156 0.437929
879 1 0.434624 0.377541 0.446134
883 1 0.565802 0.375002 0.441031
887 1 0.695009 0.381579 0.4333
891 1 0.822282 0.375369 0.438795
895 1 0.944221 0.372462 0.443179
872 1 0.122463 0.436781 0.445299
876 1 0.248576 0.434741 0.446023
884 1 0.498446 0.441346 0.440645
888 1 0.620767 0.440681 0.445207
892 1 0.755934 0.436265 0.443503
896 1 0.885888 0.432585 0.441583