ITEM: TIMESTEP
0
ITEM: NUMBER OF ATOMS
360
ITEM: BOX BOUNDS pp pp pp
0.0000000000000000e+00 6.6943295008216896e+00
0.0000000000000000e+00 6.6943295008216896e+00
0.0000000000000000e+00 6.6943295008216896e+00
ITEM: ATOMS id type xs ys zs
144 1 0.133154 0.14289 0.112162
307 2 0.176597 0.241572 0.197056
219 1 0.00260702 0.0530669 0.152364
341 2 0.0857925 0.0858995 0.248896
76 1 0.036365 0.2178 0.242282
356 2 0.222273 0.0038291 0.0229363
183 1 0.410743 0.14612 0.0309915
196 1 0.285471 0.157282 0.135322
195 1 0.420693 0.151665 0.192721
9 1 0.347634 0.0164617 0.0909348
352 2 0.479144 0.247578 0.0781453
359 2 0.310456 0.220764 0.0166165
113 1 0.339527 0.0296342 0.244403
272 1 0.510933 0.0159658 0.178979
139 1 0.54423 0.152356 0.117322
197 1 0.679002 0.0518669 0.122608
43 1 0.672259 0.23894 0.113798
291 2 0.764604 0.135057 0.205769
110 1 0.942379 0.0204986 0.0206938
187 1 0.834316 0.146117 0.0920636
259 1 0.965114 0.185673 0.0940014
50 1 0.848554 0.0059053 0.162797
214 1 0.901422 0.148318 0.233597
88 1 0.177872 0.374374 0.209436
134 1 0.10105 0.29574 0.110731
230 1 0.0605613 0.46233 0.144496
25 1 0.111186 0.391226 0.00351586
136 1 0.245486 0.294898 0.0966856
193 1 0.203934 0.476364 0.101237
319 2 0.159792 0.493705 0.224562
105 1 0.38238 0.307729 0.14549
227 1 0.33988 0.404924 0.0429766
346 2 0.292296 0.388622 0.158567
61 1 0.446624 0.435893 0.228912
154 1 0.531613 0.282051 0.199302
207 1 0.510776 0.390048 0.0827218
56 1 0.686486 0.381244 0.205275
33 1 0.596444 0.498847 0.220381
208 1 0.667567 0.376129 0.0425401
179 1 0.805854 0.273805 0.173358
51 1 0.864912 0.286646 0.0354781
213 1 0.82998 0.451445 0.103762
97 1 0.930964 0.336471 0.168962
245 1 0.919114 0.478324 0.225741
308 2 0.82708 0.392344 0.227634
215 1 0.955406 0.424636 0.00349112
99 1 0.2279 0.733621 0.0189406
57 1 0.0690646 0.697843 0.0354807
3 1 0.0778604 0.610785 0.176772
354 2 0.200059 0.611299 0.109731
337 2 0.15278 0.73899 0.135421
156 1 0.100789 0.556297 0.0241403
174 1 0.262415 0.600767 0.228552
116 1 0.345576 0.533266 0.133159
152 1 0.496526 0.564486 0.12495
79 1 0.407066 0.664858 0.214485
94 1 0.495732 0.717902 0.117659
234 1 0.36091 0.660392 0.0607827
198 1 0.264266 0.734585 0.16787
336 2 0.38025 0.533827 0.0139735
306 2 0.541042 0.647138 0.218636
278 1 0.61218 0.65874 0.0421543
126 1 0.702442 0.529267 0.0749936
173 1 0.661812 0.626866 0.182611
119 1 0.740459 0.744711 0.101188
292 2 0.50114 0.633834 0.00355226
258 1 0.947991 0.693471 0.155043
210 1 0.952781 0.562919 0.0775408
297 2 0.858838 0.663211 0.0568472
255 1 0.825156 0.590738 0.151993
235 1 0.200605 0.996867 0.149372
194 1 0.0359627 0.810302 0.210168
220 1 0.0967072 0.985283 0.0250492
42 1 0.142415 0.848622 0.0600883
342 2 0.0793231 0.935977 0.161872
233 1 0.184794 0.855358 0.204714
310 2 0.0281756 0.812998 0.0718412
355 2 0.364259 0.925936 0.179543
138 1 0.295229 0.876307 0.0790306
261 1 0.359639 0.820393 0.246051
133 1 0.474373 0.870359 0.159331
299 2 0.374151 0.775013 0.119336
249 1 0.484498 0.979675 0.012168
55 1 0.59438 0.844205 0.0552271
242 1 0.611466 0.780385 0.200519
151 1 0.641744 0.946203 0.243769
109 1 0.727788 0.896916 0.108893
330 2 0.604854 0.958551 0.105254
331 2 0.731288 0.850126 0.218489
221 1 0.887327 0.793848 0.0436932
353 2 0.836764 0.915782 0.0631814
335 2 0.941987 0.890071 0.248537
104 1 0.845912 0.82591 0.182119
106 1 0.966316 0.910454 0.125785
16 1 0.191075 0.135164 0.271718
73 1 0.0454421 0.108689 0.373045
332 2 0.0983671 0.215024 0.479315
316 2 0.17709 0.0643838 0.382501
192 1 0.194708 0.106974 0.496471
322 2 0.35018 0.165592 0.303385
225 1 0.251029 0.206927 0.406481
87 1 0.305426 0.0696779 0.382782
78 1 0.4147 0.184938 0.415442
111 1 0.462814 0.0758362 0.329504
191 1 0.472492 0.0387006 0.471945
324 2 0.50072 0.199346 0.293414
14 1 0.590747 0.108318 0.259701
85 1 0.747984 0.0309973 0.282406
118 1 0.694102 0.246611 0.285419
217 1 0.554309 0.185427 0.399263
348 2 0.665313 0.109752 0.366476
31 1 0.901898 0.0131212 0.309584
236 1 0.797167 0.158394 0.363499
351 2 0.931401 0.179236 0.366951
176 1 0.907744 0.0702186 0.451159
84 1 0.7644 0.00893536 0.42833
247 1 0.171819 0.328716 0.487673
273 1 0.0382382 0.426403 0.445688
59 1 0.040709 0.384901 0.292284
80 1 0.14554 0.282147 0.335972
89 1 0.00645153 0.274252 0.406024
96 1 0.173839 0.43806 0.358916
20 1 0.28498 0.269266 0.268783
13 1 0.297368 0.454069 0.263579
77 1 0.30495 0.368163 0.40719
58 1 0.422588 0.300061 0.304
358 2 0.31649 0.486197 0.386124
142 1 0.46094 0.318255 0.475129
276 1 0.449794 0.434875 0.387519
4 1 0.577216 0.347066 0.320237
147 1 0.677299 0.272432 0.448932
40 1 0.614106 0.486365 0.36515
277 1 0.883939 0.451087 0.373248
100 1 0.892018 0.302346 0.313703
135 1 0.755308 0.380437 0.334236
180 1 0.820589 0.347643 0.470356
274 1 0.751216 0.475966 0.443619
62 1 0.229764 0.590094 0.379747
184 1 0.0693637 0.552769 0.3098
271 1 0.157616 0.702504 0.304588
284 1 0.170764 0.710835 0.467579
270 1 0.0436494 0.66233 0.392172
315 2 0.0447197 0.693911 0.259086
244 1 0.106131 0.571238 0.491098
275 1 0.488977 0.700132 0.456601
35 1 0.477867 0.579918 0.323253
243 1 0.388873 0.562235 0.457625
280 1 0.354432 0.696288 0.363363
334 2 0.364407 0.585583 0.30701
39 1 0.647944 0.72087 0.477421
311 2 0.675645 0.58059 0.45154
282 1 0.622237 0.640392 0.342234
148 1 0.750319 0.533601 0.277981
171 1 0.77535 0.626672 0.394166
237 1 0.945669 0.557194 0.457295
159 1 0.783499 0.726724 0.261408
170 1 0.902551 0.605037 0.322552
285 1 0.898337 0.711014 0.471537
260 1 0.212279 0.971126 0.305481
263 1 0.0962663 0.972905 0.443094
145 1 0.0411759 0.97071 0.292478
22 1 0.0878986 0.828082 0.349988
304 2 0.022695 0.787578 0.45693
218 1 0.344162 0.800649 0.488334
202 1 0.491549 0.756205 0.297355
222 1 0.255153 0.823031 0.36726
305 2 0.413527 0.827974 0.36571
1 1 0.355065 0.933666 0.378954
45 1 0.497595 0.871411 0.44903
49 1 0.60425 0.984193 0.395869
11 1 0.658739 0.867838 0.499843
229 1 0.50253 0.908898 0.297055
54 1 0.627771 0.811227 0.35508
268 1 0.937332 0.910617 0.42811
216 1 0.925502 0.753918 0.312476
81 1 0.774969 0.789417 0.426623
253 1 0.791871 0.888676 0.316783
205 1 0.0586646 0.159572 0.683967
63 1 0.137347 0.00980456 0.607833
157 1 0.194176 0.226204 0.613415
17 1 0.205001 0.105422 0.721165
177 1 0.0488632 0.109238 0.525579
231 1 0.0106711 0.00766114 0.711564
68 1 0.311539 0.247474 0.703318
69 1 0.4186 0.0925181 0.706796
300 2 0.412623 0.229096 0.601826
65 1 0.476089 0.242462 0.724293
200 1 0.292756 0.0140846 0.646844
6 1 0.361798 0.107676 0.55655
262 1 0.523644 0.201206 0.547438
349 2 0.583979 0.197471 0.665539
241 1 0.676914 0.0977519 0.717803
122 1 0.553348 0.0615329 0.629576
257 1 0.692186 0.225159 0.613318
281 1 0.650422 0.116581 0.514835
345 2 0.775304 0.245166 0.529336
182 1 0.922913 0.136298 0.623315
137 1 0.80311 0.205591 0.711991
128 1 0.787238 0.123765 0.569646
211 1 0.829028 0.0239328 0.697057
75 1 0.899489 0.225734 0.500844
169 1 0.0265495 0.270826 0.585202
41 1 0.0933186 0.416206 0.593171
199 1 0.0974198 0.300295 0.717437
224 1 0.238092 0.382144 0.626516
185 1 0.230446 0.470577 0.501544
290 2 0.346579 0.416506 0.544584
298 2 0.313904 0.438744 0.712844
121 1 0.393675 0.356856 0.644962
90 1 0.317718 0.266304 0.517145
93 1 0.42007 0.498632 0.747869
248 1 0.471555 0.449903 0.540759
120 1 0.626836 0.316997 0.739232
318 2 0.504944 0.374502 0.72268
252 1 0.549757 0.325957 0.616601
209 1 0.703289 0.392092 0.630536
264 1 0.55319 0.482107 0.666669
102 1 0.608886 0.402027 0.500068
181 1 0.944478 0.253554 0.723303
246 1 0.846539 0.326175 0.615025
347 2 0.838537 0.463879 0.697246
160 1 0.951865 0.413186 0.66564
24 1 0.856187 0.467776 0.569697
313 2 0.948269 0.387047 0.540284
71 1 0.160795 0.737811 0.613863
168 1 0.13329 0.603724 0.65092
82 1 0.0506054 0.738495 0.717844
357 2 0.159108 0.678088 0.747543
296 2 0.232153 0.519127 0.632523
124 1 0.232507 0.523179 0.749421
23 1 0.0294114 0.695397 0.550705
101 1 0.365596 0.518514 0.611772
256 1 0.436592 0.66744 0.599205
34 1 0.282935 0.649751 0.699339
325 2 0.30506 0.74036 0.599815
18 1 0.286053 0.630831 0.550266
140 1 0.56511 0.746542 0.586247
47 1 0.718754 0.538139 0.593477
67 1 0.713555 0.677498 0.712972
175 1 0.554471 0.645606 0.700746
312 2 0.644862 0.647146 0.605411
143 1 0.568101 0.559469 0.522032
8 1 0.771703 0.678139 0.561392
166 1 0.990175 0.546241 0.597869
178 1 0.830731 0.592411 0.672152
189 1 0.890425 0.740235 0.662275
293 2 0.822282 0.565783 0.50086
188 1 0.0773149 0.864932 0.645786
48 1 0.158255 0.853455 0.517617
239 1 0.155752 0.963908 0.745763
132 1 0.440127 0.934957 0.724501
60 1 0.406706 0.920018 0.57011
30 1 0.26978 0.864617 0.621949
98 1 0.380791 0.801615 0.692277
317 2 0.448374 0.794984 0.5734
72 1 0.279677 0.970261 0.506763
339 2 0.588028 0.992303 0.524867
321 2 0.740887 0.943899 0.72614
288 1 0.69673 0.991333 0.598139
204 1 0.546835 0.911949 0.6097
228 1 0.699779 0.806093 0.63007
167 1 0.53866 0.800897 0.728035
46 1 0.984707 0.984635 0.568775
333 2 0.833323 0.791875 0.549283
294 2 0.956718 0.83563 0.720241
149 1 0.950785 0.83566 0.565743
279 1 0.827443 0.883413 0.665305
186 1 0.83193 0.94688 0.541028
269 1 0.163463 0.24017 0.976575
327 2 0.0993633 0.0675354 0.772576
10 1 0.058055 0.175708 0.833768
127 1 0.164815 0.0529628 0.88111
64 1 0.23108 0.197642 0.846881
44 1 0.0210016 0.0082473 0.884336
5 1 0.0476965 0.136598 0.99083
303 2 0.386386 0.0861095 0.939982
15 1 0.403719 0.194303 0.869799
254 1 0.254826 0.124058 0.976762
29 1 0.46098 0.00115049 0.865174
107 1 0.315954 0.0701406 0.822252
155 1 0.717851 0.152114 0.981799
36 1 0.5595 0.10674 0.970536
350 2 0.655113 0.0618233 0.863417
37 1 0.550564 0.118633 0.792714
86 1 0.659449 0.205842 0.839256
164 1 0.793959 0.0128683 0.995694
289 2 0.888795 0.0398351 0.890575
130 1 0.928278 0.104285 0.795308
266 1 0.788865 0.104412 0.840629
301 2 0.954425 0.225328 0.85621
240 1 0.909649 0.145102 0.946565
238 1 0.00369751 0.279116 0.965439
103 1 0.233192 0.363988 0.777391
162 1 0.0985186 0.445952 0.755271
141 1 0.108417 0.337753 0.87222
340 2 0.0408389 0.451256 0.907914
115 1 0.173646 0.48881 0.899445
338 2 0.233817 0.413864 0.973214
131 1 0.393891 0.35849 0.799775
123 1 0.429622 0.292987 0.978305
95 1 0.285544 0.314193 0.923179
114 1 0.454351 0.447837 0.956429
250 1 0.322868 0.461422 0.883583
52 1 0.705468 0.489043 0.759823
129 1 0.556607 0.441831 0.832349
287 1 0.571857 0.25872 0.999317
70 1 0.531802 0.291959 0.868031
267 1 0.679788 0.350973 0.877799
360 2 0.565722 0.368522 0.954883
328 2 0.718741 0.284554 0.983337
32 1 0.801361 0.348614 0.760209
53 1 0.80681 0.255995 0.900229
226 1 0.940831 0.376202 0.839908
7 1 0.798645 0.39937 0.954912
309 2 0.132643 0.64586 0.934523
26 1 0.105648 0.600559 0.812556
343 2 0.0053401 0.664842 0.842382
146 1 0.261507 0.583504 0.98657
206 1 0.431956 0.6839 0.793921
295 2 0.334008 0.585894 0.781876
190 1 0.251325 0.65914 0.858888
161 1 0.412697 0.600289 0.911323
302 2 0.387081 0.719822 0.913094
66 1 0.576313 0.528536 0.981198
314 2 0.692 0.622461 0.828054
286 1 0.559712 0.592683 0.842349
12 1 0.701542 0.504686 0.906412
117 1 0.637676 0.74162 0.837513
28 1 0.511534 0.739018 0.943259
19 1 0.735592 0.687987 0.936414
74 1 0.971028 0.556406 0.755346
203 1 0.842172 0.504629 0.833903
2 1 0.969462 0.559111 0.904463
83 1 0.849385 0.653303 0.818311
223 1 0.921434 0.691789 0.944072
153 1 0.830437 0.566371 0.985163
172 1 0.051683 0.869768 0.803563
91 1 0.111958 0.755445 0.879687
27 1 0.0271912 0.861633 0.961457
283 1 0.194655 0.806593 0.754259
38 1 0.179378 0.90272 0.908178
344 2 0.300272 0.750036 0.773065
232 1 0.280661 0.8023 0.884454
21 1 0.29943 0.91108 0.777417
125 1 0.328318 0.973267 0.941785
108 1 0.412316 0.836534 0.837225
265 1 0.40111 0.815767 0.995138
150 1 0.599286 0.886587 0.868706
201 1 0.749322 0.9672 0.853186
329 2 0.62511 0.778274 0.960717
165 1 0.609811 0.965755 0.753421
112 1 0.650412 0.994585 0.982215
251 1 0.735082 0.84465 0.958743
323 2 0.511551 0.866551 0.962931
320 2 0.673205 0.827309 0.755757
212 1 0.94597 0.769259 0.834348
92 1 0.877917 0.892174 0.926378
163 1 0.911666 0.926752 0.788279
158 1 0.801109 0.801615 0.783949
326 2 0.83303 0.75678 0.909415
ITEM: TIMESTEP
50000
ITEM: NUMBER OF ATOMS
360
ITEM: BOX BOUNDS pp pp pp
0.0000000000000000e+00 6.6943295008216896e+00
0.0000000000000000e+00 6.6943295008216896e+00
0.0000000000000000e+00 6.6943295008216896e+00
ITEM: ATOMS id type xs ys zs
220 1 0.181913 0.0561997 0.0693899
80 1 0.135121 0.176627 0.153769
214 1 0.0142646 0.0715054 0.208314
245 1 0.00374559 0.23208 0.273195
289 2 0.0401984 0.0261724 0.0976212
16 1 0.145949 0.0422473 0.267822
113 1 0.26691 0.128144 0.211937
139 1 0.444089 0.171409 0.118689
229 1 0.310894 0.140915 0.0381052
196 1 0.26245 0.268502 0.123916
303 2 0.372839 0.287365 0.163852
104 1 0.598017 0.99785 0.20489
50 1 0.747772 0.0540886 0.132632
118 1 0.598752 0.180239 0.114107
92 1 0.581601 0.0324321 0.0251801
159 1 0.751259 0.918909 0.237139
336 2 0.282464 0.362071 0.0271739
238 1 0.0205036 0.140969 0.0452898
197 1 0.764733 0.188037 0.0555432
219 1 0.894591 0.157621 0.138002
194 1 0.863267 0.00483515 0.209679
240 1 0.89865 0.052215 0.0231015
76 1 0.0130936 0.29062 0.122674
134 1 0.157859 0.354821 0.0550035
59 1 0.139535 0.31802 0.21856
174 1 0.254881 0.415184 0.214615
161 1 0.0540864 0.428696 0.129612
99 1 0.197151 0.692164 0.0201685
91 1 0.966521 0.78728 0.00867842
36 1 0.39802 0.286074 0.0220995
105 1 0.380987 0.408202 0.120232
20 1 0.284781 0.28238 0.284334
291 2 0.394561 0.504046 0.0447114
193 1 0.509481 0.426236 0.0391251
70 1 0.6268 0.318282 0.0143464
352 2 0.638266 0.456284 0.0769601
35 1 0.646047 0.380391 0.180612
58 1 0.509539 0.313205 0.136688
173 1 0.510558 0.465124 0.178357
348 2 0.73169 0.0672811 0.48992
308 2 0.865437 0.27069 0.151243
213 1 0.761406 0.367318 0.0679453
259 1 0.742847 0.260047 0.185339
353 2 0.795188 0.380566 0.198502
215 1 0.90091 0.405147 0.139945
260 1 0.953727 0.99699 0.440939
179 1 0.777438 0.493119 0.157764
198 1 0.0990586 0.577357 0.11879
326 2 0.172344 0.471236 0.130912
234 1 0.24655 0.618322 0.169111
334 2 0.146449 0.715173 0.175176
123 1 0.274722 0.508073 0.0604872
55 1 0.386295 0.56484 0.18117
278 1 0.34923 0.629732 0.0360875
306 2 0.330819 0.684817 0.239724
54 1 0.445469 0.706999 0.141091
287 1 0.498592 0.590799 0.0753945
208 1 0.636169 0.560198 0.134553
33 1 0.581514 0.735723 0.0743826
135 1 0.691044 0.698829 0.218649
258 1 0.736459 0.661498 0.0687448
210 1 0.96188 0.532657 0.0461661
342 2 0.842029 0.578409 0.100013
57 1 0.00554965 0.696836 0.136516
119 1 0.860996 0.685718 0.183477
47 1 0.933866 0.548925 0.190005
83 1 0.873837 0.660947 0.0163896
27 1 0.114031 0.946872 0.159779
223 1 0.101789 0.810014 0.0866228
42 1 0.070325 0.80372 0.242383
94 1 0.22825 0.813716 0.171618
339 2 0.218231 0.90248 0.0767096
262 1 0.593866 0.885955 0.337232
310 2 0.298326 0.734584 0.114555
133 1 0.277819 0.978301 0.181111
125 1 0.414618 0.0158632 0.132891
150 1 0.363292 0.86634 0.115702
272 1 0.321137 0.990101 0.00604018
14 1 0.461418 0.919248 0.232555
117 1 0.514017 0.882609 0.0718667
151 1 0.672142 0.927764 0.0760246
170 1 0.749448 0.802861 0.13811
11 1 0.599612 0.830469 0.197477
270 1 0.851169 0.71298 0.336336
346 2 0.789308 0.788028 0.250985
335 2 0.859283 0.780711 0.0741496
106 1 0.980828 0.919662 0.10004
251 1 0.829856 0.925017 0.0836095
153 1 0.905966 0.837763 0.207983
87 1 0.0383292 0.1062 0.385736
332 2 0.176082 0.0866043 0.384478
89 1 0.127918 0.201641 0.470271
263 1 0.155692 0.191395 0.322526
233 1 0.0971518 0.967737 0.399535
143 1 0.610215 0.77283 0.473955
316 2 0.373928 0.0340178 0.451344
85 1 0.389693 0.0700423 0.276144
111 1 0.317403 0.156612 0.402598
200 1 0.274181 -0.00101608 0.370485
227 1 0.438324 0.229022 0.27067
217 1 0.531248 0.24757 0.451073
29 1 0.619565 0.0480009 0.392846
257 1 0.48363 0.101601 0.404764
221 1 0.691923 0.101653 0.273154
322 2 0.527607 1.00046 0.313434
288 1 0.531118 0.116532 0.251054
324 2 0.590017 0.176397 0.367678
145 1 0.862501 0.900376 0.347623
84 1 0.917847 0.848117 0.485168
49 1 0.785445 0.0296521 0.373289
356 2 0.918091 0.0473689 0.327256
100 1 0.871605 0.160163 0.288823
22 1 0.877659 0.134023 0.433437
209 1 0.855849 0.675391 0.47618
177 1 0.762013 0.216834 0.376794
255 1 0.993752 0.418953 0.275636
319 2 0.0236918 0.247833 0.415085
116 1 0.0989643 0.344931 0.358142
191 1 0.548455 0.921104 0.487415
274 1 0.952283 0.359218 0.419532
78 1 0.227025 0.322565 0.420942
13 1 0.194653 0.469296 0.430101
358 2 0.273689 0.410713 0.338652
77 1 0.38712 0.313897 0.408488
154 1 0.393372 0.394302 0.270443
236 1 0.614141 0.24813 0.259507
248 1 0.649073 0.442511 0.435356
195 1 0.545593 0.365372 0.338851
314 2 0.637107 0.2999 0.402141
56 1 0.644887 0.50131 0.286826
252 1 0.804902 0.361562 0.446513
61 1 0.716139 0.354161 0.323152
148 1 0.834464 0.461976 0.303946
281 1 0.862543 0.317324 0.290585
315 2 0.89362 0.468031 0.433252
244 1 0.0434283 0.478007 0.413455
277 1 0.128882 0.490484 0.273713
3 1 0.145332 0.604904 0.423638
62 1 0.070401 0.633112 0.286212
79 1 0.215327 0.703787 0.29581
45 1 0.718411 0.911593 0.421172
280 1 0.255891 0.568452 0.323373
18 1 0.36279 0.496599 0.411361
207 1 0.417481 0.6427 0.312888
275 1 0.315551 0.686781 0.423225
75 1 0.774206 0.544568 0.44056
218 1 0.45552 0.629274 0.467172
152 1 0.51657 0.525843 0.366762
242 1 0.543663 0.632384 0.227381
39 1 0.639809 0.635643 0.36118
40 1 0.538814 0.752203 0.330972
171 1 0.00767447 0.704652 0.445558
282 1 0.70596 0.772898 0.35018
341 2 0.956568 0.739128 0.262593
293 2 0.714646 0.672775 0.46213
273 1 0.927941 0.565876 0.363855
216 1 0.768922 0.597481 0.277512
235 1 0.00901124 0.941062 0.27707
305 2 0.107749 0.736986 0.356715
284 1 0.188887 0.763101 0.455732
271 1 0.191973 0.890245 0.308034
63 1 0.991622 0.816174 0.356436
222 1 0.213227 0.907854 0.494941
60 1 0.450411 0.793482 0.479018
261 1 0.368559 0.803702 0.256084
355 2 0.349026 0.921142 0.294848
276 1 0.442386 0.942373 0.385997
202 1 0.320392 0.846352 0.401204
331 2 0.413767 0.753487 0.367235
147 1 0.648232 0.163055 0.484961
97 1 0.891961 0.281479 0.0209985
351 2 0.719981 0.2772 0.492555
337 2 0.0353069 0.280745 -0.00142459
72 1 0.067062 0.868374 0.503027
136 1 0.153242 0.199588 0.00162042
185 1 0.492611 0.440862 0.491803
126 1 0.78862 0.495881 0.0116597
205 1 0.0923264 0.0642008 0.542807
141 1 0.0608538 0.0478821 0.694894
169 1 0.184563 0.13528 0.631206
192 1 0.0523542 0.2098 0.612563
224 1 0.265649 0.246472 0.560096
68 1 0.328927 0.102378 0.661791
239 1 0.450772 0.0264847 0.575395
112 1 0.449428 0.0894369 0.981792
65 1 0.429944 0.217317 0.71963
184 1 0.249861 0.581578 0.524679
225 1 0.555075 0.217188 0.611185
241 1 0.632571 0.0405955 0.576685
327 2 0.315382 0.803934 0.514589
165 1 0.51516 0.0733989 0.694083
211 1 0.685798 0.156849 0.645891
176 1 0.79077 0.177997 0.539034
128 1 0.80533 0.154668 0.735792
268 1 0.914108 0.11266 0.604925
181 1 0.963964 0.159216 0.757645
182 1 0.900279 0.988552 0.748748
330 2 0.750337 0.903675 0.973823
199 1 0.155367 0.319066 0.647868
298 2 0.198995 0.387396 0.531006
103 1 0.128633 0.488703 0.570356
162 1 0.0706152 0.458134 0.710737
41 1 0.242021 0.449378 0.663165
180 1 0.973007 0.378074 0.595823
318 2 0.527317 0.328869 0.659913
96 1 0.314365 0.401421 0.520772
247 1 0.31126 0.317651 0.696185
157 1 0.401633 0.444345 0.633724
243 1 0.429952 0.303806 0.569033
266 1 0.591162 0.170165 0.959637
53 1 0.758171 0.325215 0.601408
4 1 0.647745 0.283867 0.701816
121 1 0.560493 0.454589 0.648323
295 2 0.720623 0.39706 0.710861
142 1 0.617876 0.33592 0.542874
206 1 0.68299 0.46481 0.582573
246 1 0.898341 0.252046 0.652834
120 1 0.854883 0.3988 0.723526
102 1 0.849278 0.453233 0.551361
115 1 1.00065 0.327095 0.752552
347 2 0.0413036 0.5919 0.649265
23 1 0.159114 0.585641 0.699884
24 1 0.105441 0.655283 0.554138
149 1 0.103224 0.735326 0.697263
26 1 0.277667 0.714253 0.738248
290 2 0.223978 0.668419 0.629424
90 1 0.485171 0.582676 0.612307
283 1 0.340352 0.57938 0.673218
344 2 0.374601 0.537939 0.53646
98 1 0.352907 0.702691 0.583455
28 1 0.596999 0.70351 0.608597
265 1 0.439916 0.688752 0.709905
345 2 0.993057 0.139184 0.501726
333 2 0.638806 0.602555 0.659434
101 1 0.574309 0.648334 0.758401
81 1 0.729152 0.615229 0.57851
166 1 0.976468 0.567577 0.517182
32 1 0.784986 0.519647 0.676046
312 2 0.861513 0.601052 0.572549
357 2 0.956851 0.69625 0.723161
189 1 0.834825 0.701749 0.658066
264 1 0.934848 0.524349 0.673315
253 1 0.971663 0.704091 0.59346
1 1 0.218727 0.972628 0.633084
172 1 0.220314 0.802153 0.606692
231 1 0.0928507 0.893274 0.64955
349 2 0.533249 0.112314 0.52292
296 2 0.334329 0.804952 0.657473
132 1 0.445648 0.824723 0.629401
48 1 0.375143 0.942999 0.683659
164 1 0.568103 0.794256 0.726724
110 1 0.751641 0.0350488 0.975663
204 1 0.703135 0.780501 0.692528
64 1 0.556085 0.928166 0.644608
30 1 0.715419 0.912408 0.614108
317 2 0.571198 0.818361 0.600448
228 1 0.762372 0.909837 0.761092
46 1 0.781986 0.0325792 0.65348
304 2 0.976415 0.841433 0.601038
340 2 0.918097 0.898737 0.988686
237 1 0.96824 0.976411 0.599549
279 1 0.981442 0.814384 0.729186
285 1 0.856106 0.862826 0.626764
320 2 0.883671 0.867753 0.762551
201 1 0.840824 0.945634 0.878094
44 1 0.21482 0.0582718 0.787245
269 1 0.0790831 0.116253 0.851371
95 1 0.125219 0.212997 0.755903
297 2 0.170372 0.218827 0.870361
183 1 0.209952 0.085614 0.932064
254 1 0.384979 0.044105 0.810985
6 1 0.404678 0.151764 0.529679
37 1 0.445105 0.226253 0.881606
17 1 0.293022 0.198706 0.804997
359 2 0.329674 0.156521 0.916336
122 1 0.650424 0.0336024 0.725781
350 2 0.608752 0.161132 0.75187
137 1 0.527278 0.0953901 0.838907
86 1 0.694899 0.136815 0.853439
155 1 0.578733 0.26047 0.831861
5 1 0.0396925 0.00633668 0.96268
307 2 0.00702563 0.0329304 0.819005
130 1 0.976216 0.212159 0.905135
321 2 0.760922 0.0357949 0.823738
163 1 0.888561 0.0882889 0.87312
301 2 0.846651 0.193905 0.924073
160 1 0.861452 0.27415 0.826618
250 1 0.20271 0.353489 0.798485
168 1 0.0898609 0.454038 0.869463
10 1 0.0865484 0.310106 0.891079
302 2 0.119405 0.582373 0.884848
338 2 0.176658 0.478439 0.793189
190 1 0.255076 0.442102 0.908876
309 2 0.0601764 0.889055 0.985256
25 1 0.26839 0.268735 0.928602
15 1 0.346987 0.444908 0.778045
300 2 0.335352 0.321166 0.826919
131 1 0.417498 0.390969 0.909022
52 1 0.470419 0.352108 0.769111
313 2 0.743829 0.253745 0.780479
360 2 0.589383 0.384516 0.76709
328 2 0.520224 0.314769 0.947618
267 1 0.702247 0.367708 0.82877
43 1 0.587881 0.424166 0.897565
187 1 0.739841 0.259383 0.92455
311 2 0.701585 0.417422 0.954927
67 1 0.946122 0.451683 0.829011
7 1 0.848385 0.387818 0.921092
88 1 0.0924167 0.344853 0.509011
71 1 0.161728 0.681669 0.827174
186 1 0.753701 0.783044 0.536263
74 1 0.0592302 0.647673 0.973863
2 1 0.0299856 0.613121 0.788215
156 1 0.262764 0.564421 0.810814
299 2 0.252414 0.583619 0.949219
93 1 0.471373 0.52634 0.761897
124 1 0.38625 0.54534 0.923243
292 2 0.463146 0.641371 0.970334
146 1 0.305824 0.691879 0.905538
354 2 0.382312 0.599919 0.796918
34 1 0.464358 0.703492 0.863407
8 1 0.738113 0.637764 0.753552
158 1 0.828472 0.759717 0.79328
129 1 0.529345 0.558634 0.893665
325 2 0.664678 0.596519 0.850537
19 1 0.612751 0.697425 0.912529
114 1 0.642504 0.498326 0.768241
12 1 0.759043 0.653343 0.920793
329 2 0.88336 0.682591 0.879482
51 1 0.767846 0.512407 0.841315
178 1 0.991096 0.731348 0.850616
203 1 0.931482 0.574683 0.906741
140 1 0.874012 0.615823 0.771754
127 1 0.0946618 0.953621 0.812816
294 2 0.108149 0.824499 0.793676
232 1 0.226301 0.865751 0.752148
82 1 0.109263 0.790511 0.923676
144 1 0.17252 0.930405 0.9538
343 2 0.22921 0.787287 0.848394
66 1 0.65029 0.549166 0.975568
107 1 0.449236 0.945067 0.921291
230 1 0.995798 0.402089 0.990743
21 1 0.515858 0.947575 0.782204
249 1 0.403963 0.829731 0.79816
9 1 0.296978 0.91878 0.871582
323 2 0.634845 0.899048 0.747789
109 1 0.638219 0.950758 0.879343
175 1 0.551825 0.835552 0.919705
167 1 0.696183 0.810288 0.851027
38 1 0.350814 0.928958 0.524573
212 1 0.835951 0.807131 0.932925
188 1 0.973693 0.88179 0.874993
69 1 0.25914 0.0672293 0.525377
286 1 0.699188 0.786525 0.994737
31 1 0.832327 0.977842 0.511974
108 1 0.426629 0.78506 0.992206
226 1 0.133334 0.503053 0.99593
138 1 0.262344 0.824849 0.998914
73 1 0.905814 0.253067 0.508191
256 1 0.589387 0.580808 0.524205
ITEM: TIMESTEP
100000
ITEM: NUMBER OF ATOMS
360
ITEM: BOX BOUNDS pp pp pp
0.0000000000000000e+00 6.6943295008216896e+00
0.0000000000000000e+00 6.6943295008216896e+00
0.0000000000000000e+00 6.6943295008216896e+00
ITEM: ATOMS id type xs ys zs
161 1 0.06354 0.272087 0.108444
111 1 0.166277 0.146341 0.154994
238 1 0.0819282 0.0292514 0.0527795
76 1 0.220673 0.0720374 0.0246836
133 1 0.0453302 0.115868 0.24524
200 1 0.323649 0.172951 0.132386
240 1 0.846693 0.149923 0.00344799
165 1 0.36798 0.0116055 0.105761
288 1 0.497374 0.218288 0.142967
289 2 0.452797 0.0913583 0.121767
85 1 0.436019 0.0842975 0.241217
22 1 0.893463 0.943853 0.287505
259 1 0.584359 0.0743724 0.198741
100 1 0.724357 0.156175 0.100619
341 2 0.885992 0.666397 0.486942
236 1 0.623416 0.242258 0.210252
340 2 0.757213 0.259094 0.02705
255 1 0.97653 0.148248 0.0867216
352 2 0.859807 0.190657 0.132707
109 1 0.89166 0.0919779 0.206812
245 1 0.918035 0.0178471 0.0372056
263 1 0.741834 0.0505397 0.200863
322 2 0.791197 0.00215147 0.0185191
336 2 0.386383 0.410742 0.0585091
59 1 0.138102 0.404466 0.144736
13 1 0.07085 0.278249 0.262831
215 1 0.977789 0.408609 0.137017
33 1 0.67238 0.547568 0.0251244
64 1 0.495516 0.844993 0.0111546
230 1 0.817826 0.607824 -0.00059819
113 1 0.226082 0.235624 0.035668
89 1 0.263884 0.31394 0.185134
312 2 0.303828 0.455002 0.226257
355 2 0.354786 0.274844 0.0653037
123 1 0.470174 0.305607 0.0274801
20 1 0.262318 0.406978 0.0497238
144 1 0.257797 0.704037 0.0250695
78 1 0.423695 0.343304 0.169593
131 1 0.52535 0.449313 0.0754047
303 2 0.558098 0.33571 0.124149
105 1 0.626505 0.275023 0.032185
208 1 0.677276 0.460817 0.148528
291 2 0.56369 0.509537 0.20799
353 2 0.681977 0.378503 0.243314
119 1 0.74787 0.381529 0.00491476
47 1 0.7384 0.299634 0.140507
210 1 0.930026 0.265567 0.21319
281 1 0.836674 0.425656 0.147201
97 1 0.883573 0.304734 0.0604422
216 1 0.987147 0.409218 0.4851
190 1 0.23607 0.552363 0.17775
280 1 0.137117 0.672099 0.170514
116 1 0.0746531 0.532125 0.176392
226 1 0.115788 0.619187 0.0329526
99 1 0.0147419 0.717043 0.0782987
292 2 0.162793 0.763696 0.084465
299 2 0.310081 0.632292 0.113393
278 1 0.38155 0.535536 0.0903318
154 1 0.431882 0.478162 0.217494
358 2 0.262901 0.65717 0.261441
98 1 0.384346 0.661073 0.206778
261 1 0.403213 0.711373 0.0653237
310 2 0.671969 0.76986 0.256145
207 1 0.516365 0.606329 0.14624
40 1 0.660375 0.582634 0.240449
258 1 0.636951 0.700405 0.153453
134 1 0.0659562 0.479821 0.0184837
88 1 0.202513 0.293617 0.506976
275 1 0.461755 0.819459 0.341048
273 1 0.951622 0.583026 0.0786476
179 1 0.795941 0.586466 0.150466
83 1 0.925833 0.5261 0.217471
42 1 0.897133 0.698281 0.174559
150 1 0.197012 -0.00568816 0.1563
91 1 0.000546433 0.984133 0.18586
339 2 0.0751875 0.878671 0.0284501
136 1 0.244485 0.878142 0.0672933
54 1 0.111119 0.875847 0.148667
117 1 0.261339 0.883764 0.232052
107 1 0.280327 0.757884 0.158479
137 1 0.382322 0.850737 0.114706
342 2 0.362341 0.800422 0.232609
182 1 0.834514 0.887744 0.422807
104 1 0.393039 0.949584 0.25313
110 1 0.509031 0.941393 0.156881
92 1 0.66875 0.999718 0.0666883
151 1 0.501274 0.779008 0.179964
194 1 0.601885 0.869785 0.250858
163 1 0.641004 0.842344 0.0872794
286 1 0.85848 0.76638 0.023345
102 1 0.767131 0.784023 0.159476
27 1 1.00366 0.817416 0.235573
57 1 0.828223 0.945812 0.138776
335 2 0.872415 0.821985 0.214807
80 1 0.961648 0.868873 0.0868315
185 1 0.550221 0.570691 0.493111
332 2 0.133655 0.197915 0.458436
73 1 0.0238628 0.195472 0.388092
224 1 0.191723 0.235319 0.343684
87 1 0.118951 0.0881569 0.379948
223 1 0.282765 0.0700298 0.258268
298 2 0.260948 0.189394 0.242752
69 1 0.319105 0.263768 0.425018
14 1 0.346714 0.0960762 0.387844
257 1 0.391358 0.228532 0.274454
271 1 0.49732 0.0417884 0.469391
29 1 0.506326 0.152735 0.367076
324 2 0.514719 0.250915 0.266971
262 1 0.662301 0.126582 0.312692
276 1 0.637983 0.153399 0.475947
159 1 0.531874 1.00284 0.320363
221 1 0.781265 0.188957 0.237635
106 1 0.95864 0.0613117 0.361893
176 1 0.812266 0.0700913 0.35361
63 1 0.904522 0.145264 0.483209
31 1 0.775685 0.226452 0.387936
314 2 0.896239 0.182289 0.331613
174 1 0.185274 0.442222 0.276353
198 1 0.119875 0.364163 0.395323
71 1 0.107645 0.946307 0.491813
227 1 0.249998 0.448725 0.429619
308 2 0.259324 0.351673 0.32953
56 1 0.0377554 0.490097 0.327643
251 1 0.947056 0.782895 0.48194
318 2 0.436949 0.277898 0.408255
103 1 0.395695 0.392621 0.336109
72 1 0.897701 0.7602 0.333224
195 1 0.614062 0.281434 0.357241
266 1 0.547537 0.3732 0.257941
173 1 0.651022 0.461676 0.354447
243 1 0.515803 0.406809 0.431288
206 1 0.762048 0.377681 0.410225
326 2 0.179168 0.514504 0.069297
148 1 0.929986 0.305012 0.355689
334 2 0.911791 0.399548 0.261032
55 1 0.552335 0.708854 0.0297722
170 1 0.803439 0.339446 0.274045
218 1 0.891286 0.448657 0.374132
253 1 0.0959451 0.515596 0.466776
264 1 0.0296585 0.660123 0.439573
94 1 0.157043 0.601718 0.317331
277 1 0.0214115 0.655929 0.268012
357 2 0.153852 0.707994 0.411448
66 1 0.146678 0.803552 0.315848
242 1 0.519843 0.525927 0.334944
77 1 0.39032 0.506246 0.432352
96 1 0.268244 0.60216 0.458694
18 1 0.311987 0.554176 0.315387
152 1 0.398114 0.673101 0.370329
166 1 0.262513 0.735624 0.364851
305 2 0.71211 0.91863 0.181038
193 1 0.650507 0.633802 0.394816
11 1 0.761516 0.684532 0.282564
270 1 0.753591 0.854587 0.288421
282 1 0.646189 0.783869 0.376788
153 1 0.535346 0.687053 0.31517
192 1 0.218974 0.114912 0.48663
343 2 0.0234968 0.760493 0.35742
135 1 0.781747 0.485161 0.268421
149 1 0.776584 0.564167 0.449209
62 1 0.776418 0.725966 0.435712
209 1 0.903196 0.607235 0.363743
233 1 0.00259096 0.880943 0.38305
60 1 0.558659 0.870887 0.440574
189 1 0.109971 0.957655 0.305999
172 1 0.225352 0.850803 0.455166
222 1 0.382469 0.792647 0.476381
145 1 0.674973 0.97299 0.349694
3 1 0.243789 0.975469 0.380506
309 2 0.314371 0.857804 0.351167
79 1 0.390759 0.944484 0.415165
356 2 0.707623 0.900024 0.436486
39 1 0.534387 0.717995 0.47278
181 1 0.946558 0.978336 0.485355
139 1 0.588794 0.127685 0.0348691