ITEM: TIMESTEP
0
ITEM: NUMBER OF ATOMS
360
ITEM: BOX BOUNDS pp pp pp
0.0000000000000000e+00 6.6943295008216896e+00
0.0000000000000000e+00 6.6943295008216896e+00
0.0000000000000000e+00 6.6943295008216896e+00
ITEM: ATOMS id type xs ys zs
313 2 0.238131 0.120187 0.0739313
94 1 0.116367 0.128248 0.106222
184 1 0.198674 0.0854256 0.235103
322 2 0.069684 0.0658546 0.215691
183 1 0.00839392 0.0244125 0.0414998
213 1 0.0921098 0.201619 0.239202
273 1 0.173261 0.0364855 0.000341846
114 1 0.262315 0.224931 0.155799
48 1 0.370496 0.118239 0.0952517
269 1 0.484195 0.214574 0.125241
38 1 0.338917 0.0292632 0.249062
324 2 0.379013 0.205816 0.19266
39 1 0.466766 0.113242 0.242729
351 2 0.674303 0.110407 0.0966253
192 1 0.640801 0.211966 0.1623
150 1 0.543749 0.0817451 0.0948986
263 1 0.708701 0.0658429 0.217915
214 1 0.606266 0.222585 0.0112586
100 1 0.923393 0.159329 0.0276006
161 1 0.812001 0.182776 0.169742
250 1 0.96355 0.124781 0.171302
95 1 0.826331 0.0395242 0.100706
188 1 0.766633 0.156216 0.00425992
293 2 0.154475 0.274554 0.157114
170 1 0.11941 0.399639 0.118401
9 1 0.167242 0.279604 0.0220297
76 1 0.0381865 0.362943 0.249532
348 2 0.043662 0.485002 0.185744
62 1 0.174872 0.483312 0.224663
123 1 0.268202 0.41607 0.116725
249 1 0.356901 0.295396 0.0656001
157 1 0.442032 0.444503 0.145065
158 1 0.366487 0.329426 0.211887
89 1 0.383728 0.427533 0.00755343
280 1 0.52216 0.35153 0.0391812
54 1 0.701366 0.370511 0.143052
116 1 0.554167 0.333124 0.202434
309 2 0.675236 0.289423 0.248734
298 2 0.734323 0.25032 0.0842203
112 1 0.594623 0.482499 0.120733
308 2 0.621928 0.435469 0.00895259
204 1 0.980454 0.276147 0.131796
268 1 0.844165 0.300381 0.0516994
267 1 0.931678 0.423717 0.122944
358 2 0.81245 0.420167 0.0748956
69 1 0.837477 0.346696 0.21791
347 2 0.917917 0.44609 0.245086
66 1 0.1466 0.556246 0.0930712
259 1 0.114613 0.749644 0.11793
3 1 0.224623 0.655437 0.179133
202 1 0.0737849 0.60977 0.217063
210 1 0.245847 0.693329 0.0330422
306 2 0.0788629 0.643387 0.0322352
195 1 0.303897 0.554048 0.035519
264 1 0.473941 0.595546 0.0583603
303 2 0.342374 0.651517 0.11349
34 1 0.333902 0.542321 0.190937
131 1 0.487692 0.563662 0.226257
300 2 0.621033 0.595573 0.00263242
41 1 0.74655 0.500378 0.20682
317 2 0.708341 0.568543 0.0930549
120 1 0.721978 0.676427 0.038518
96 1 0.61471 0.628547 0.151781
149 1 0.567502 0.734821 0.0527472
22 1 0.907696 0.570477 0.21882
130 1 0.993696 0.569315 0.0963906
125 1 0.84609 0.544362 0.0666463
56 1 0.76384 0.647307 0.188658
241 1 0.989057 0.72543 0.0296818
71 1 0.972538 0.71431 0.186752
325 2 0.845419 0.678592 0.0199084
296 2 0.079556 0.92582 0.00827225
239 1 0.112529 0.969394 0.147262
299 2 0.135195 0.849194 0.188909
45 1 0.00999774 0.859505 0.102689
55 1 0.186082 0.870347 0.0501244
228 1 0.433266 0.978398 0.128618
254 1 0.282466 0.981857 0.109796
52 1 0.43159 0.76597 0.130661
78 1 0.26397 0.795878 0.15469
336 2 0.349081 0.872941 0.128257
310 2 0.487579 0.867315 0.17878
15 1 0.666007 0.988262 0.0761962
304 2 0.714115 0.767598 0.170988
245 1 0.70709 0.839426 0.0459969
163 1 0.526106 0.891045 0.0521609
160 1 0.574372 0.977414 0.2193
16 1 0.610175 0.831346 0.17989
67 1 0.822732 0.770177 0.110221
230 1 0.950641 0.981447 0.184849
320 2 0.899514 0.854618 0.192896
201 1 0.752646 0.91365 0.1746
59 1 0.873103 0.905374 0.0515509
193 1 0.157727 0.149837 0.364137
339 2 0.0925346 0.0451799 0.421605
229 1 0.247138 0.0096549 0.376924
79 1 0.00329563 0.117054 0.338977
345 2 0.123946 0.192362 0.472683
330 2 0.412734 0.227872 0.455687
46 1 0.284198 0.174587 0.458481
265 1 0.305084 0.185308 0.29958
13 1 0.417718 0.105713 0.399491
295 2 0.514986 0.0163379 0.474276
199 1 0.59811 0.172938 0.306171
99 1 0.679436 0.109672 0.431937
236 1 0.558908 0.0325271 0.351568
156 1 0.549206 0.226749 0.45396
113 1 0.918325 0.234257 0.287783
7 1 0.75541 0.194136 0.322866
205 1 0.859318 0.0773711 0.2767
82 1 0.857134 0.131414 0.434299
211 1 0.972711 0.0115156 0.450375
301 2 0.104132 0.375681 0.353583
74 1 0.198502 0.31955 0.26609
235 1 0.184846 0.472622 0.396709
83 1 0.035275 0.416598 0.452461
217 1 0.179442 0.306709 0.451266
165 1 0.0158589 0.491791 0.321869
80 1 0.0358556 0.257301 0.375894
65 1 0.463808 0.357667 0.445475
143 1 0.465352 0.261714 0.31933
159 1 0.315301 0.443 0.325972
35 1 0.469886 0.425634 0.307029
286 1 0.31243 0.301123 0.376497
58 1 0.338839 0.448052 0.48154
44 1 0.611048 0.3182 0.346267
292 2 0.559911 0.432972 0.395271
206 1 0.622234 0.455417 0.281897
272 1 0.675684 0.499836 0.425732
126 1 0.738127 0.269826 0.458035
343 2 0.827054 0.284033 0.367713
1 1 0.755871 0.393235 0.338079
47 1 0.919158 0.379717 0.356963
134 1 0.906056 0.280978 0.494182
319 2 0.15442 0.68394 0.492293
212 1 0.121957 0.631005 0.372165
357 2 0.0186067 0.662426 0.449238
333 2 0.0403071 0.72208 0.293025
246 1 0.23279 0.58579 0.494361
168 1 0.35733 0.687244 0.252438
327 2 0.389737 0.549072 0.307366
153 1 0.260676 0.580489 0.319304
169 1 0.373819 0.594269 0.432726
177 1 0.252463 0.706739 0.406715
289 2 0.461769 0.667693 0.354171
176 1 0.528279 0.710362 0.256297
4 1 0.527027 0.558114 0.395057
102 1 0.572684 0.727391 0.410119
208 1 0.650442 0.604232 0.297186
342 2 0.686036 0.725539 0.469781
138 1 0.90245 0.701725 0.486149
240 1 0.940681 0.542813 0.4581
51 1 0.83992 0.519039 0.346553
224 1 0.950677 0.641163 0.337068
164 1 0.793282 0.663936 0.376714
23 1 0.799027 0.56788 0.492629
166 1 0.0309782 0.859017 0.260126
283 1 0.0893122 0.988758 0.315713
135 1 0.0781318 0.775254 0.41452
151 1 0.167554 0.758611 0.279172
115 1 0.228722 0.916974 0.256205
57 1 0.126126 0.930201 0.467037
297 2 0.0123146 0.897514 0.396054
349 2 0.136374 0.873638 0.348147
227 1 0.38462 0.875188 0.255508
332 2 0.285712 0.786423 0.298185
247 1 0.406434 0.773999 0.3919
122 1 0.267139 0.860015 0.401094
274 1 0.404586 0.952256 0.406917
329 2 0.462474 0.980111 0.272355
323 2 0.645465 0.855506 0.421458
284 1 0.695371 0.944057 0.321391
219 1 0.508443 0.84157 0.486818
101 1 0.67686 0.775551 0.307187
128 1 0.625754 0.967447 0.473808
98 1 0.539552 0.855387 0.328183
355 2 0.884852 0.915287 0.414028
111 1 0.824073 0.765514 0.257088
290 2 0.960726 0.985183 0.30725
238 1 0.853892 0.918299 0.28825
178 1 0.946673 0.796069 0.361795
258 1 0.792533 0.825644 0.418062
225 1 0.788759 0.982811 0.452748
222 1 0.180553 0.0883321 0.681747
85 1 0.0593678 0.172795 0.649808
218 1 0.168607 0.0813487 0.514727
197 1 0.0435173 0.00643948 0.597403
2 1 0.201811 0.226301 0.591913
133 1 0.0060837 0.142867 0.502474
6 1 0.330094 0.0507175 0.663414
255 1 0.400572 0.159565 0.559668
321 2 0.276809 0.120265 0.576805
8 1 0.311159 0.0122498 0.519893
243 1 0.443332 0.150455 0.7073
179 1 0.600521 0.133508 0.708538
49 1 0.642644 0.214812 0.577846
42 1 0.745555 0.193986 0.728422
11 1 0.539547 0.0935358 0.567879
121 1 0.699281 0.0800348 0.589254
19 1 0.806881 0.197854 0.592053
251 1 0.98691 0.0432014 0.734941
73 1 0.877129 0.0649336 0.590047
61 1 0.902385 0.15969 0.714715
326 2 0.939733 0.202349 0.592937
305 2 0.793868 0.0911108 0.673315
302 2 0.0310803 0.299605 0.66302
72 1 0.118156 0.405811 0.591831
252 1 0.0469512 0.283468 0.535357
14 1 0.145142 0.31152 0.724749
341 2 0.156111 0.453064 0.711948
234 1 0.246732 0.49266 0.619793
350 2 0.218103 0.427646 0.509333
221 1 0.0104974 0.419883 0.731862
174 1 0.324113 0.268416 0.684346
148 1 0.498182 0.268712 0.608375
318 2 0.259686 0.367291 0.619777
146 1 0.396252 0.413189 0.629467
287 1 0.328225 0.299987 0.534661
294 2 0.479567 0.451554 0.73166
17 1 0.470368 0.317033 0.745009
117 1 0.624025 0.35893 0.500599
260 1 0.612538 0.283752 0.731431
248 1 0.512981 0.475848 0.517482
26 1 0.555518 0.394752 0.641979
315 2 0.667377 0.449041 0.701284
242 1 0.728335 0.339434 0.634626
266 1 0.688384 0.483819 0.577558
282 1 0.953478 0.438649 0.58688
261 1 0.899074 0.308091 0.650118
173 1 0.829967 0.46527 0.676504
68 1 0.807716 0.404058 0.517428
25 1 0.0476482 0.558352 0.673978
253 1 0.184792 0.641977 0.640978
288 1 0.0547914 0.6972 0.563249
103 1 0.0851124 0.557082 0.518797
129 1 0.374818 0.565278 0.584221
137 1 0.3144 0.701263 0.549889
97 1 0.486541 0.678706 0.671659
70 1 0.333783 0.658729 0.703438
180 1 0.491952 0.667578 0.518416
194 1 0.563794 0.538245 0.651829
53 1 0.638113 0.697946 0.648353
139 1 0.635983 0.61493 0.510773
337 2 0.639589 0.601494 0.741178
189 1 0.991433 0.71362 0.717485
220 1 0.760242 0.601882 0.654001
87 1 0.776507 0.716132 0.565131
12 1 0.917576 0.598654 0.614045
233 1 0.843258 0.742209 0.713552
27 1 0.123847 0.792145 0.668261
18 1 0.123825 0.954094 0.736665
75 1 0.212536 0.923181 0.608616
108 1 0.192276 0.795443 0.523664
354 2 0.0899773 0.883436 0.57768
352 2 0.250364 0.772468 0.639098
276 1 0.446111 0.97101 0.569901
335 2 0.344198 0.926371 0.637533
215 1 0.366368 0.806625 0.668129
119 1 0.456466 0.936485 0.717686
118 1 0.355589 0.859174 0.530007
29 1 0.275545 0.934043 0.742465
359 2 0.430433 0.758461 0.574413
64 1 0.527984 0.827691 0.625204
171 1 0.67356 0.832177 0.547244
106 1 0.59347 0.962704 0.642195
232 1 0.702916 0.820273 0.696872
307 2 0.733489 0.937576 0.581352
346 2 0.93924 0.759655 0.592286
10 1 0.977102 0.842896 0.511971
63 1 0.987415 0.871333 0.667388
90 1 0.838794 0.961845 0.698933
353 2 0.929814 0.946887 0.549934
196 1 0.83629 0.861108 0.574552
257 1 0.0780203 0.142932 0.801649
270 1 0.0733208 0.154594 0.962806
244 1 0.196447 0.0566508 0.841921
105 1 0.0427421 0.00675491 0.888197
198 1 0.216066 0.203125 0.816462
316 2 0.296631 0.124755 0.7554
5 1 0.370497 0.201014 0.830209
209 1 0.385632 0.0413502 0.812038
86 1 0.283556 0.187527 0.970302
226 1 0.328378 0.0407004 0.972937
107 1 0.461052 0.146273 0.968323
185 1 0.702681 0.0111411 0.754983
338 2 0.66643 0.106746 0.830306
109 1 0.626695 0.0777571 0.960602
40 1 0.530496 0.193022 0.842816
167 1 0.556574 0.0386231 0.822036
186 1 0.673397 0.228848 0.869486
344 2 0.881421 0.053507 0.968937
93 1 0.792857 0.10451 0.85424
281 1 0.933633 0.138595 0.871793
147 1 0.108184 0.298964 0.883654
275 1 0.138432 0.451688 0.837988
190 1 0.0492966 0.478236 0.987306
278 1 0.198802 0.439929 0.989309
285 1 0.272706 0.401994 0.750809
172 1 0.287277 0.483373 0.880869
145 1 0.275285 0.329173 0.917691
28 1 0.432102 0.291161 0.929671
312 2 0.366312 0.337837 0.831733
203 1 0.447742 0.440567 0.854357
24 1 0.736896 0.350506 0.797546
32 1 0.717218 0.333111 0.983441
271 1 0.578802 0.341315 0.905181
191 1 0.586899 0.461674 0.796959
314 2 0.687109 0.420554 0.887319
30 1 0.725875 0.498898 0.985277
277 1 0.995713 0.319623 0.976912
360 2 0.84046 0.276585 0.755992
181 1 0.84285 0.271653 0.886783
152 1 0.988703 0.270165 0.790553
262 1 0.882595 0.399824 0.810471
331 2 0.98626 0.38983 0.876917
144 1 0.887154 0.433075 0.972465
132 1 0.225277 0.559418 0.761649
84 1 0.15651 0.59065 0.932463
92 1 0.129169 0.677953 0.804764
231 1 0.00965851 0.536811 0.840622
33 1 0.416419 0.569174 0.927251
36 1 0.37204 0.529943 0.757901
237 1 0.294506 0.646665 0.892775
142 1 0.417071 0.72622 0.828315
88 1 0.399473 0.72898 0.983389
175 1 0.544451 0.507852 0.947988
140 1 0.507256 0.585628 0.796078
216 1 0.529211 0.670268 0.921464
60 1 0.648413 0.589784 0.88676
223 1 0.570298 0.732278 0.782329
187 1 0.715309 0.684401 0.785443
21 1 0.751018 0.511371 0.798148
31 1 0.886513 0.600782 0.761628
340 2 0.874664 0.517165 0.866129
50 1 0.939217 0.588427 0.96005
328 2 0.834334 0.707326 0.830342
136 1 0.800912 0.608449 0.911081
124 1 0.960473 0.703833 0.87274
104 1 0.116716 0.774207 0.943768
154 1 0.238955 0.779495 0.766547
77 1 0.0570247 0.817541 0.814997
182 1 0.167312 0.91467 0.874478
43 1 0.471466 0.992539 0.952527
37 1 0.273774 0.807008 0.937708
334 2 0.474532 0.826715 0.763828
291 2 0.2907 0.952105 0.89229
91 1 0.36676 0.869389 0.838051
311 2 0.474852 0.942894 0.842727
127 1 0.377842 0.882425 0.999443
279 1 0.591105 0.887915 0.782803
110 1 0.616792 0.939131 0.920198
141 1 0.510304 0.828051 0.889071
256 1 0.66002 0.766392 0.918622
200 1 0.906096 0.836777 0.81312
207 1 0.767163 0.981881 0.952717
20 1 0.842256 0.787472 0.944323
155 1 0.759244 0.877026 0.840097
81 1 0.982728 0.879411 0.939246
162 1 0.888933 0.984384 0.855816
356 2 0.985095 0.928438 0.803669
ITEM: TIMESTEP
1000000
ITEM: NUMBER OF ATOMS
360
ITEM: BOX BOUNDS pp pp pp
0.0000000000000000e+00 6.6943295008216896e+00
0.0000000000000000e+00 6.6943295008216896e+00
0.0000000000000000e+00 6.6943295008216896e+00
ITEM: ATOMS id type xs ys zs
255 1 0.140736 0.0983484 0.183468
94 1 0.0595107 0.175204 0.0612299
213 1 0.0230571 0.202988 0.220923
28 1 0.248594 0.187539 0.265914
135 1 0.262549 0.797431 0.477401
254 1 0.270642 0.0108791 0.130723
193 1 0.282714 0.17591 0.104119
89 1 0.409071 0.0485692 0.062203
44 1 0.436592 0.207401 0.110371
115 1 0.385294 0.104901 0.217383
206 1 0.496342 0.205801 0.268617
269 1 0.533507 0.0933402 0.157384
263 1 0.679479 0.0103143 0.131385
188 1 0.676594 0.156745 0.0500917
268 1 0.64915 0.229555 0.182156
274 1 0.553679 0.0105805 0.0324688
320 2 0.656029 0.109551 0.225835
250 1 0.933349 0.108748 0.133489
67 1 0.788029 0.121268 0.188457
207 1 0.826991 0.0594676 -0.000510073
100 1 0.828839 0.20953 0.0695018
170 1 0.88547 0.0402123 0.292328
191 1 0.156153 0.257771 0.146423
340 2 0.0296685 0.294506 0.132762
158 1 0.159429 0.439829 0.111966
62 1 0.0466569 0.367725 0.234362
275 1 0.266292 0.336626 0.0794323
301 2 0.402949 0.468806 0.119584
159 1 0.365174 0.317226 0.207923
157 1 0.415703 0.354878 0.0572855
246 1 0.303287 0.470739 0.193873
74 1 0.442903 0.476234 0.239685
35 1 0.523502 0.347654 0.182785
69 1 0.654215 0.395657 0.0884941
308 2 0.720291 0.284469 0.0718451
54 1 0.569415 0.281262 0.0531949
280 1 0.529441 0.496341 0.11171
175 1 0.760835 0.34299 0.228964
190 1 0.957136 0.286995 0.0305866
267 1 0.903228 0.282884 0.192149
278 1 0.0037584 0.425505 0.0841078
277 1 0.822989 0.366938 0.0749219
235 1 0.909928 0.439441 0.221064
165 1 0.771644 0.491365 0.17191
123 1 0.15961 0.588659 0.0829064
240 1 0.00290485 0.554013 0.159974
169 1 0.09181 0.698623 0.181995
327 2 0.0567451 0.671904 0.0672453
153 1 0.244988 0.615227 0.214149
358 2 0.252532 0.659148 0.0328903
203 1 0.391393 0.594702 0.15211
195 1 0.295136 0.527136 0.0436857
264 1 0.386603 0.739166 0.0965988
71 1 0.931278 0.892607 0.250204
96 1 0.498644 0.683934 0.200596
210 1 0.524144 0.639401 0.0502491
141 1 0.637945 0.599781 0.168038
293 2 0.540557 0.558485 0.261874
150 1 0.671209 0.748149 0.157061
23 1 0.769199 0.594565 0.481152
139 1 0.555955 0.784715 0.402601
50 1 0.88816 0.529822 0.053515
41 1 0.778721 0.638256 0.107717
45 1 0.929511 0.687695 0.10372
164 1 0.884971 0.605558 0.233281
38 1 0.189305 0.891659 0.0708972
151 1 0.0645707 0.843862 0.195078
81 1 0.0472327 0.808631 0.0469969
230 1 0.0296218 0.977608 0.138376
131 1 0.229065 0.754886 0.123506
297 2 0.346631 0.961013 0.233776
333 2 0.298804 0.96049 0.0195365
39 1 0.351402 0.882383 0.10271
354 2 0.43691 0.819054 0.186715
78 1 0.466547 0.946182 0.190571
332 2 0.46745 0.913645 0.0581029
168 1 0.243552 0.883357 0.228814
199 1 0.822922 0.947262 0.417937
52 1 0.533424 0.806436 0.0977655
304 2 0.583988 0.914948 0.152651
163 1 0.673483 0.859005 0.0574719
201 1 0.698481 0.893534 0.210581
98 1 0.563733 0.832189 0.256598
310 2 0.762697 0.772051 0.0596637
323 2 0.946188 0.847774 0.123728
15 1 0.831973 0.806776 0.153584
95 1 0.83155 0.974688 0.145348
59 1 0.881704 0.800627 0.00763853
290 2 0.781065 0.82386 0.460276
204 1 0.117874 0.118976 0.335374
313 2 0.0978713 0.179298 0.452103
236 1 0.222051 0.0879306 0.448752
347 2 -0.00167824 0.0809524 0.2568
286 1 0.203429 0.237556 0.404518
349 2 0.120994 0.997571 0.413215
76 1 0.052989 0.248601 0.369544
329 2 0.982911 0.920311 0.362382
239 1 0.252792 0.0280625 0.303536
265 1 0.443722 0.0352368 0.341238
295 2 0.333557 0.0525358 0.398042
13 1 0.375519 0.172793 0.359902
134 1 0.51588 0.225851 0.417427
10 1 0.81966 0.819112 0.311478
160 1 0.617705 0.134301 0.353789
126 1 0.677697 0.248919 0.443523
219 1 0.734509 0.0222752 0.317108
247 1 0.555014 0.00071 0.433512
352 2 0.713712 0.116259 0.455284
161 1 0.770168 0.200996 0.320611
82 1 0.84198 0.0980837 0.460342
133 1 0.922349 0.189404 0.326593
113 1 0.987518 0.0662479 0.401387
184 1 0.15705 0.0485719 0.0251281
252 1 0.827902 0.258483 0.45406
321 2 0.142538 0.261491 0.28142
259 1 0.223685 0.359482 0.25374
217 1 0.116298 0.383482 0.378578
166 1 0.916923 0.837006 0.439717
330 2 0.334968 0.408747 0.299907
112 1 0.463958 0.34815 0.337165
8 1 0.274723 0.364743 0.42686
4 1 0.395428 0.479908 0.396942
287 1 0.244474 0.502286 0.347024
144 1 0.632875 0.456663 0.238963
1 1 0.576294 0.367378 0.456527
156 1 0.608716 0.321346 0.312971
30 1 0.728236 0.412773 0.376819
80 1 0.84747 0.430913 0.483314
72 1 0.972097 0.453887 0.377168
7 1 0.877682 0.338244 0.34531
345 2 0.960984 0.319731 0.461858
129 1 0.13301 0.499364 0.253378
355 2 0.175789 0.621067 0.320683
176 1 0.103074 0.529593 0.414125
97 1 0.168688 0.655315 0.445289
138 1 0.0371455 0.638925 0.318662
292 2 0.355341 0.554993 0.279381
118 1 0.306309 0.641668 0.370244
120 1 0.460889 0.629016 0.34457
309 2 0.510053 0.911204 0.362968
143 1 0.579563 1.00484 0.274881
116 1 0.548146 0.490042 0.374629
216 1 0.59958 0.678093 0.297344
47 1 0.681112 0.558007 0.345813
117 1 0.577311 0.633439 0.451717
272 1 0.702043 0.733206 0.413454
212 1 0.00978254 0.70928 0.4686
51 1 0.832831 0.522174 0.348658
16 1 0.749815 0.67295 0.259295
111 1 0.864117 0.67511 0.38172
224 1 0.947715 0.73947 0.238886
289 2 0.818819 0.938972 0.266838
84 1 0.106339 0.324329 0.0166578
339 2 0.151591 0.973774 0.182428
177 1 0.200853 0.74541 0.299802
57 1 0.0693861 0.882667 0.47326
79 1 0.0444283 0.803319 0.345833
353 2 0.13486 0.779913 0.431983
283 1 0.0790555 0.97289 0.282774
122 1 0.189929 0.891753 0.37543
317 2 0.303898 0.671951 0.495594
34 1 0.343572 0.7315 0.243724
348 2 0.468598 0.74835 0.308808
215 1 0.476578 0.884533 0.48947
208 1 0.407766 0.754184 0.423086
227 1 0.413357 0.866388 0.303392
101 1 0.327578 0.930184 0.42504
342 2 0.302025 0.809023 0.35445
128 1 0.674942 0.881894 0.363907
325 2 0.685136 0.785924 0.28412
6 1 0.420074 0.0757039 0.495755
257 1 0.970202 0.196987 0.49344
200 1 0.0286009 0.555438 0.00685256
102 1 0.43546 0.617723 0.491541
33 1 0.645737 0.543264 -0.00232537
284 1 0.712876 0.995558 0.505171
214 1 0.928891 0.942578 0.0186678
173 1 0.653002 0.491851 0.49626
211 1 0.0485607 0.209407 0.635363
2 1 0.15003 0.0598044 0.665667
46 1 0.187504 0.183969 0.567166
218 1 0.0769401 0.0723991 0.517266
346 2 0.205105 0.161032 0.701682
209 1 0.453778 0.0717421 0.648458
315 2 0.446224 0.19517 0.698021
222 1 0.307704 0.230505 0.684589
137 1 0.289877 0.0752758 0.630706
260 1 0.472386 0.210624 0.571363
99 1 0.624718 0.12075 0.666259
179 1 0.754792 0.180363 0.574442
326 2 0.697788 0.23786 0.686901
42 1 0.577455 0.261552 0.752572
229 1 0.592328 0.126241 0.503255
121 1 0.764482 0.135718 0.719127
73 1 0.988822 0.05247 0.669776
251 1 0.89623 0.170823 0.648213
225 1 0.819311 0.0354683 0.598915
336 2 0.936706 0.0853663 0.544888
66 1 0.096002 0.304476 0.521543
335 2 0.230974 0.308436 0.535812
85 1 0.166185 0.323249 0.656614
14 1 0.0711219 0.454825 0.651357
322 2 0.998844 0.344931 0.679846
276 1 0.171492 0.432324 0.519273
243 1 0.323143 0.227942 0.503119
40 1 0.304942 0.383702 0.592859
58 1 0.407637 0.490851 0.574699
242 1 0.437045 0.327836 0.671948
148 1 0.382142 0.48926 0.732647
296 2 0.975298 0.855918 0.934879
282 1 0.734772 0.332168 0.561599
119 1 0.600707 0.268638 0.597881
19 1 0.688347 0.376284 0.723634
146 1 0.55687 0.429345 0.625401
65 1 0.434295 0.358594 0.491322
103 1 0.91488 0.309901 0.585577
61 1 0.825009 0.310778 0.705793
261 1 0.895595 0.450082 0.644498
25 1 0.745485 0.472741 0.619709
288 1 0.225843 0.493274 0.655749
231 1 0.119458 0.595585 0.718375
27 1 0.114683 0.577404 0.563609
253 1 0.241891 0.662735 0.623872
77 1 0.156723 0.742117 0.730261
234 1 0.00283546 0.427819 0.520614
124 1 0.393673 0.6213 0.656021
291 2 0.449855 0.746697 0.687216
70 1 0.336235 0.745851 0.742961
318 2 0.514322 0.528294 0.712841
279 1 0.551077 0.573876 0.601991
68 1 0.645534 0.537891 0.725764
64 1 0.684475 0.676618 0.5834
232 1 0.711503 0.671431 0.736867
220 1 0.530063 0.730619 0.583453
221 1 0.978298 0.673805 0.636894
343 2 0.991598 0.542897 0.612315
178 1 0.846187 0.718561 0.532179
22 1 0.836922 0.599486 0.641667
12 1 0.107271 0.769755 0.570789
108 1 0.0993442 0.921011 0.61431
106 1 0.250898 0.833562 0.644717
105 1 0.220511 0.954512 0.532082
162 1 0.0169876 0.829165 0.724298
75 1 0.377523 0.757202 0.576563
5 1 0.272025 0.95559 0.739509
18 1 0.371126 0.94361 0.607356
316 2 0.371186 0.861092 0.710307
11 1 0.493156 0.87168 0.644273
351 2 0.561441 0.0247558 0.724508
171 1 0.578894 0.992225 0.589159
266 1 0.624338 0.797704 0.6866
187 1 0.707973 0.941714 0.6658
180 1 0.651859 0.832358 0.533014
328 2 0.754061 0.774255 0.629799
87 1 0.874756 0.767803 0.679447
300 2 0.807693 0.00520994 0.718289
238 1 0.968177 0.828184 0.576154
258 1 0.818047 0.87236 0.572794
196 1 0.90569 0.917982 0.691567
205 1 0.936063 0.972967 0.518987
305 2 0.130556 0.0403654 0.901662
197 1 0.205418 0.0928881 0.816267
183 1 0.00717109 0.0672189 0.956811
249 1 0.181197 0.181274 0.950462
9 1 0.175431 0.253905 0.788757
86 1 0.0537924 0.117611 0.790503
344 2 0.29728 0.206261 0.853609
174 1 0.354813 0.116188 0.779696
145 1 0.309574 0.0808968 0.952842
312 2 0.416666 0.13589 0.895316
17 1 0.428495 0.248256 0.821602
172 1 0.359553 0.236022 0.972523
192 1 0.503102 0.14721 0.988268
271 1 0.509859 0.119435 0.788002
338 2 0.641379 0.160594 0.785147
110 1 0.676722 0.0313455 0.803907
314 2 0.613543 0.0960024 0.940603
114 1 0.594593 0.222799 0.900083
24 1 0.731372 0.132664 0.890993
298 2 0.770149 0.232498 0.947721
90 1 0.893241 0.0885949 0.784178
270 1 0.89455 0.16792 0.922152
360 2 0.835577 0.211008 0.815169
152 1 0.0629486 0.368735 0.784679
147 1 0.184212 0.464066 0.80366
341 2 0.126612 0.323652 0.884172
273 1 0.0372235 0.243842 0.902218
130 1 0.166871 0.444704 0.965546
136 1 0.0075074 0.406822 0.922086
198 1 0.251615 0.330938 0.902222
256 1 0.751923 0.8269 0.918907
107 1 0.310261 0.352636 0.775403
36 1 0.410076 0.381001 0.90394
311 2 0.479775 0.286651 0.947691
294 2 0.307607 0.415482 0.979003
226 1 0.311881 0.49786 0.877717
359 2 0.445971 0.496149 0.863086
49 1 0.531472 0.41281 0.787097
337 2 0.604474 0.341773 0.869551
21 1 0.697699 0.336285 0.955517
26 1 0.548482 0.395702 0.970971
60 1 0.665471 0.457334 0.866907
262 1 0.71554 0.265904 0.820503
319 2 0.780462 0.388549 0.839457
281 1 0.953065 0.244266 0.769976
181 1 0.856406 0.317817 0.904185
32 1 0.912656 0.410458 0.786212
302 2 0.908882 0.412553 0.993296
20 1 0.799764 0.504755 0.789583
149 1 0.783524 0.482633 0.957475
63 1 0.977037 0.942756 0.846852
92 1 0.0672718 0.549985 0.859798
56 1 0.19672 0.594911 0.93409
357 2 0.111249 0.675084 0.878434
189 1 0.0092271 0.679137 0.787087
142 1 0.359293 0.653481 0.973431
285 1 0.262203 0.595114 0.764529
140 1 0.445873 0.510801 0.995531
104 1 0.417924 0.615444 0.818287
306 2 0.399668 0.731267 0.868296
248 1 0.543371 0.670425 0.737295
237 1 0.51822 0.709705 0.912338
88 1 0.558846 0.560681 0.862578
53 1 0.70975 0.609083 0.875215
307 2 0.755431 0.725598 0.841157
31 1 0.976641 0.547296 0.733644
241 1 0.916933 0.557747 0.894343
125 1 0.856076 0.658847 0.793424
155 1 0.994153 0.700286 0.937988
245 1 0.818445 0.672523 0.953689
299 2 0.179915 0.842274 0.946701
182 1 0.239111 0.728567 0.861274
55 1 0.0842231 0.932161 0.964327
37 1 0.128928 0.942599 0.788106
3 1 0.233766 0.951027 0.910436
29 1 0.0764441 0.804904 0.865732
334 2 0.229028 0.840297 0.774664
331 2 0.322017 0.00613473 0.833946
244 1 0.431285 0.96581 0.758976
127 1 0.478643 0.803231 0.798487
223 1 0.352242 0.863389 0.838294
43 1 0.402165 0.960526 0.940305
228 1 0.444114 0.817785 0.97216
303 2 0.477613 0.897533 0.87854
48 1 0.587786 0.866802 0.931018
109 1 0.693147 0.98563 0.962864
167 1 0.585968 0.913237 0.778322
185 1 0.765008 0.836288 0.771788
186 1 0.537342 0.0144968 0.881209
324 2 0.68752 0.912569 0.846717
91 1 0.633453 0.765499 0.826323
93 1 0.815423 0.976352 0.857264
154 1 0.296904 0.805201 0.979473
233 1 0.900327 0.810535 0.843064
202 1 0.154487 0.726156 0.985983
194 1 0.663789 0.716152 0.988647
83 1 0.925852 0.570843 0.509889
132 1 0.266465 0.548108 0.504506
350 2 0.514298 0.469931 0.502603
356 2 0.802657 0.928677 0.988459
ITEM: TIMESTEP
2000000
ITEM: NUMBER OF ATOMS
360
ITEM: BOX BOUNDS pp pp pp
0.0000000000000000e+00 6.6943295008216896e+00
0.0000000000000000e+00 6.6943295008216896e+00
0.0000000000000000e+00 6.6943295008216896e+00
ITEM: ATOMS id type xs ys zs
308 2 0.100928 0.0668136 0.151259
191 1 0.152147 0.16403 0.212174
183 1 0.161115 0.149015 0.053942
190 1 0.0174318 0.154378 0.0797718
292 2 0.245262 0.0798543 0.12531
218 1 0.232507 0.0145087 0.231855
204 1 0.17958 0.992721 0.0718448
246 1 0.345402 0.158805 0.173384
54 1 0.476089 0.137041 0.0521831
206 1 0.467597 0.0593613 0.195546
115 1 0.345948 0.00316271 0.11943
309 2 0.457921 0.20752 0.156958
157 1 0.317763 0.126244 0.0315418
192 1 0.610193 0.175046 0.18881
100 1 0.728965 0.114991 0.0888689
289 2 0.601781 0.0151186 0.225602
91 1 0.600673 0.0409988 0.104687
324 2 0.723849 0.0292176 -7.40115e-05
181 1 0.62432 0.185282 0.015982
201 1 0.866723 0.179001 0.144499
314 2 0.830063 0.0606933 0.18292
73 1 0.859007 0.0284296 0.0487822
341 2 0.766092 0.236716 0.0209701
24 1 0.961309 0.0332473 0.1817
21 1 0.980952 0.192969 0.251815
188 1 0.434015 0.807954 0.0224783
158 1 0.0733286 0.295692 0.0364462
28 1 0.0749441 0.290379 0.192504
302 2 0.108457 0.40186 0.134425
26 1 0.193305 0.392016 0.0235968
84 1 0.244488 0.28678 0.136944
195 1 0.382299 0.261049 0.0557896
275 1 0.394746 0.311163 0.197865
56 1 0.349376 0.416369 0.0947543
280 1 0.489518 0.44136 0.166314
337 2 0.461331 0.384685 0.0329119
104 1 0.340451 0.461859 0.242795
268 1 0.703328 0.283302 0.123348
311 2 0.621041 0.386648 0.134187
112 1 0.544574 0.322595 0.245287
49 1 0.545061 0.291314 0.0999241
165 1 0.725367 0.433147 0.0700236
144 1 0.580853 0.440963 0.0264984
358 2 0.97004 0.265958 0.112408
217 1 0.986322 0.397523 0.102865
359 2 0.813381 0.410272 0.197629
235 1 0.846149 0.341512 0.0686087
240 1 0.922794 0.470654 0.226902
175 1 0.887625 0.317919 0.210456
127 1 0.221868 0.493913 0.15029
133 1 0.0282695 0.554357 0.127714
123 1 0.198173 0.652948 0.0908075
297 2 0.204399 0.726607 0.21057
151 1 0.0590436 0.697091 0.166722
135 1 0.0725731 0.703835 0.496792
203 1 0.291591 0.617155 0.222988
194 1 0.377729 0.667489 0.0950407
330 2 0.355374 0.536537 0.13976
141 1 0.456633 0.58048 0.191988
98 1 0.489374 0.753373 0.160904
348 2 0.40883 0.696493 0.24644
27 1 0.917894 0.718728 0.474009
220 1 0.621021 0.505272 0.195815
147 1 0.516086 0.653819 0.0240576
92 1 0.661413 0.593324 0.0629216
344 2 0.547355 0.543645 0.0997171
96 1 0.635301 0.740004 0.103819
319 2 0.559886 0.641259 0.17946
51 1 0.690272 0.653621 0.229812
317 2 0.749541 0.543559 0.154965
7 1 0.858554 0.514755 0.0932662
16 1 0.938091 0.661088 0.0623545
150 1 0.787604 0.688039 0.113539
164 1 0.899554 0.610285 0.213597
357 2 0.109431 0.891325 0.019897
38 1 0.0151225 0.834154 0.0886068
239 1 0.0922111 0.943772 0.179955
255 1 0.15988 0.811616 0.12051
59 1 0.0268587 0.999292 0.0530686
331 2 0.262375 0.916389 0.167023
130 1 0.121422 0.533993 0.010282
167 1 0.287381 0.885363 0.0399845
291 2 0.287286 0.749537 0.0547254
34 1 0.325284 0.789473 0.178478
264 1 0.450973 0.906065 0.162133
256 1 0.610167 0.887844 0.157428
321 2 0.547461 0.820402 0.0645796
93 1 0.742025 0.960509 0.131677
307 2 0.735418 0.825504 0.0726014
329 2 0.690868 0.900992 0.267472
163 1 0.7459 0.807431 0.197288
347 2 0.942951 0.887185 0.213513
15 1 0.861553 0.864738 0.114264
224 1 0.909936 0.760863 0.207457
71 1 0.823405 0.944444 0.254595
170 1 0.0915862 0.0492737 0.295512
67 1 0.999592 0.123849 0.409998
166 1 0.204735 0.125949 0.391364
139 1 0.822218 0.978598 0.430794
78 1 0.472147 0.112758 0.44459
39 1 0.349068 0.0740172 0.319027
126 1 0.445318 0.174696 0.302875
259 1 0.335736 0.201238 0.436783
76 1 0.291057 0.229687 0.295954
159 1 0.57138 0.0804732 0.330746
143 1 0.712394 0.0693748 0.248929
1 1 0.595244 0.221982 0.351405
222 1 0.614281 0.160963 0.488716
160 1 0.665907 0.968536 0.380456
269 1 0.728266 0.121837 0.398174
44 1 0.768597 0.223316 0.260643
140 1 0.44964 0.516605 0.0126917
35 1 0.871252 0.0961321 0.304796
263 1 0.87314 0.218868 0.399905
128 1 0.572274 0.00117865 0.495767
202 1 0.22095 0.373017 0.258593
178 1 0.882818 0.819307 0.356053
230 1 0.115269 0.237453 0.346152
234 1 0.0722165 0.429325 0.265235
176 1 0.131901 0.399381 0.408955
322 2 0.66626 0.784958 0.495815
276 1 0.266953 0.350539 0.404231
287 1 0.419986 0.341176 0.362025
118 1 0.392456 0.48083 0.41754
156 1 0.703205 0.377842 0.254077
4 1 0.494817 0.486955 0.310037
318 2 0.478931 0.389206 0.467017
8 1 0.504417 0.263837 0.476187
252 1 0.72645 0.423319 0.463637
226 1 0.58831 0.369649 0.38962
247 1 0.727945 0.27474 0.409127
129 1 0.988978 0.443926 0.446571
250 1 0.980528 0.326961 0.344533
22 1 0.848129 0.398261 0.347225
328 2 0.837949 0.45869 0.457775
148 1 0.300974 0.552586 0.0133148
81 1 0.140725 0.57595 0.249789
153 1 0.235579 0.511288 0.352127
169 1 0.0920676 0.551617 0.380975
177 1 0.126157 0.715611 0.323054
343 2 0.0183935 0.549442 0.280023
97 1 0.321734 0.618629 0.46852
353 2 0.21534 0.638993 0.377135
74 1 0.380867 0.600754 0.334212
101 1 0.428671 0.717456 0.4426
199 1 0.963345 0.968926 0.335282
282 1 0.632617 0.531574 0.361964
124 1 0.531413 0.606825 0.462139
102 1 0.529223 0.647981 0.31272
30 1 0.654579 0.68595 0.401304
89 1 0.482684 0.980552 0.0289706
138 1 0.978467 0.67155 0.330634
355 2 0.985957 0.612331 0.444457
111 1 0.778377 0.521025 0.279636
212 1 0.810825 0.697835 0.313004
116 1 0.771045 0.587998 0.424663
62 1 0.910154 0.542197 0.358044
323 2 0.792478 0.730776 0.432132
265 1 0.19262 0.851899 0.269248
205 1 0.0749371 0.988407 0.444434
350 2 0.00587205 0.792103 0.404401
79 1 0.0317194 0.826032 0.273761
342 2 0.0854011 0.924264 0.338357
137 1 0.112427 0.837853 0.430949
286 1 0.21985 0.973129 0.37328
13 1 0.310585 0.0569739 0.488506
168 1 0.298886 0.734035 0.324411
208 1 0.34528 0.920208 0.27678
215 1 0.424527 0.973452 0.417721
227 1 0.316826 0.858407 0.413561
75 1 0.450488 0.810712 0.324269
122 1 0.221623 0.742667 0.45418
120 1 0.526817 0.938368 0.293707
47 1 0.599411 0.782574 0.280084