ITEM: TIMESTEP
0
ITEM: NUMBER OF ATOMS
360
ITEM: BOX BOUNDS pp pp pp
0.0000000000000000e+00 6.6943295008216896e+00
0.0000000000000000e+00 6.6943295008216896e+00
0.0000000000000000e+00 6.6943295008216896e+00
ITEM: ATOMS id type xs ys zs
24 1 0.0546922 0.0667347 0.136017
337 2 0.172334 0.187586 0.171872
57 1 0.247872 0.0986071 0.131101
319 2 0.143145 0.0696866 0.0404764
21 1 0.0406797 0.220765 0.172275
273 1 0.148643 0.187945 0.0247535
296 2 0.0348075 0.15127 0.00814674
8 1 0.438714 0.138223 0.080952
15 1 0.281904 0.243396 0.085277
353 2 0.460127 0.00396177 0.0923542
123 1 0.415971 0.231576 0.18496
346 2 0.321484 0.146466 0.0108989
78 1 0.364565 0.0556124 0.226719
122 1 0.279696 0.19207 0.2484
25 1 0.563609 0.0859307 0.0448837
236 1 0.687433 0.055553 0.12431
144 1 0.644901 0.213103 0.083428
212 1 0.522255 0.0809253 0.184001
178 1 0.83632 0.147584 0.106923
307 2 0.811066 0.0284709 0.144879
112 1 0.929388 0.110598 0.227497
310 2 0.938423 0.0780487 0.0935794
97 1 0.191023 0.320904 0.203527
326 2 0.0604768 0.345212 0.16344
88 1 0.166529 0.369391 0.0565303
2 1 0.0257619 0.310399 0.0414659
208 1 0.0383474 0.483259 0.166452
339 2 0.148647 0.445978 0.183177
167 1 0.317732 0.391397 0.114789
302 2 0.313694 0.297434 0.200872
23 1 0.474084 0.364587 0.126805
301 2 0.414713 0.477281 0.149134
288 1 0.397264 0.276458 0.0043651
358 2 0.536452 0.261046 0.0836192
16 1 0.568338 0.26249 0.200302
117 1 0.739695 0.254674 0.187591
292 2 0.652891 0.339629 0.175387
93 1 0.663034 0.459108 0.15126
195 1 0.596234 0.367325 0.0489208
344 2 0.533509 0.495214 0.0637736
18 1 0.755765 0.364324 0.057287
65 1 0.830178 0.373822 0.240436
110 1 0.925293 0.432391 0.0719818
283 1 0.900446 0.289102 0.118503
287 1 0.167082 0.558605 0.115609
4 1 0.0322817 0.640904 0.115415
113 1 0.238639 0.699942 0.0545899
267 1 0.222152 0.54595 0.243518
71 1 0.174942 0.695823 0.184856
304 2 0.0657085 0.722882 0.227872
207 1 0.0606683 0.504614 0.0196124
280 1 0.404561 0.717739 0.0433888
240 1 0.313122 0.654419 0.174086
133 1 0.49324 0.611054 0.17158
115 1 0.450506 0.573522 0.0286892
160 1 0.323866 0.535798 0.0750422
194 1 0.604802 0.599562 0.0716317
146 1 0.557885 0.735563 0.00787859
61 1 0.679139 0.737618 0.159668
6 1 0.645199 0.623123 0.245559
34 1 0.760353 0.559487 0.109083
7 1 0.91153 0.576382 0.103734
225 1 0.932909 0.699976 0.228837
105 1 0.901213 0.509523 0.247048
40 1 0.83094 0.698213 0.0839156
82 1 0.104891 0.776731 0.0508726
284 1 0.14118 0.969058 0.221979
156 1 0.0785498 0.912089 0.111421
62 1 0.199268 0.82898 0.198222
17 1 0.465649 0.862594 0.0588935
143 1 0.258867 0.935994 0.125849
357 2 0.276549 0.80857 0.0850317
171 1 0.456375 0.928419 0.215962
222 1 0.353429 0.803204 0.184669
303 2 0.580072 0.817606 0.0941267
241 1 0.517529 0.767834 0.190019
55 1 0.605797 0.93553 0.119648
111 1 0.894823 0.966274 0.0357759
181 1 0.840911 0.825892 0.0480127
116 1 0.94048 0.953937 0.185315
266 1 0.962557 0.796204 0.110597
274 1 0.817285 0.794987 0.20056
37 1 0.770959 0.919069 0.123934
139 1 0.116213 0.110851 0.280334
68 1 0.0949803 0.0474998 0.473819
76 1 0.137399 0.183293 0.439181
322 2 0.239816 0.0629584 0.25657
96 1 0.000195225 0.140613 0.39715
305 2 0.214083 0.166019 0.346607
98 1 0.306489 0.0811586 0.357819
193 1 0.419434 0.167117 0.343148
157 1 0.430802 0.00180997 0.357078
104 1 0.309151 0.240419 0.454459
56 1 0.496988 0.209949 0.48051
140 1 0.250072 0.0868657 0.497801
79 1 0.646487 0.162993 0.270386
316 2 0.510111 0.175776 0.264242
54 1 0.640989 0.193915 0.430721
174 1 0.707371 0.0711277 0.380287
258 1 0.558533 0.073814 0.363087
106 1 0.797736 0.139285 0.252206
247 1 0.823048 0.174274 0.408199
22 1 0.907989 0.0312509 0.362008
210 1 0.878041 0.243842 0.293982
121 1 0.0744281 0.260861 0.322748
259 1 0.133836 0.421098 0.293947
340 2 0.0688829 0.290728 0.451821
252 1 0.215614 0.305255 0.360736
264 1 0.199296 0.489324 0.416572
31 1 0.0245653 0.466505 0.382311
141 1 0.30368 0.411607 0.277993
74 1 0.477473 0.400383 0.269935
118 1 0.350491 0.386658 0.465245
295 2 0.392817 0.457766 0.341738
233 1 0.495493 0.428115 0.416358
80 1 0.362263 0.298653 0.332369
67 1 0.71857 0.309084 0.333841
198 1 0.732768 0.445777 0.424432
214 1 0.627463 0.342599 0.440692
142 1 0.538048 0.293111 0.348988
263 1 0.623105 0.424722 0.307825
103 1 0.749434 0.493021 0.264209
265 1 0.987784 0.366257 0.267772
350 2 0.93554 0.477146 0.490407
256 1 0.943954 0.279016 0.419773
235 1 0.88049 0.405615 0.378392
138 1 0.789356 0.30821 0.470209
91 1 0.189204 0.745608 0.471434
12 1 0.156193 0.743631 0.318312
185 1 0.238326 0.629908 0.357778
51 1 0.105304 0.604031 0.436527
127 1 0.0134388 0.705924 0.351103
187 1 0.0778324 0.597834 0.284548
343 2 0.292044 0.735588 0.269858
261 1 0.367617 0.704803 0.458223
108 1 0.385636 0.534074 0.250438
234 1 0.350737 0.553375 0.398939
47 1 0.412725 0.70349 0.298053
275 1 0.652682 0.652355 0.49407
272 1 0.525694 0.545329 0.299659
164 1 0.511443 0.599454 0.429724
218 1 0.560213 0.719982 0.333401
161 1 0.708464 0.707258 0.370947
45 1 0.644498 0.553992 0.374088
109 1 0.957978 0.583569 0.456275
87 1 0.861014 0.696066 0.409819
197 1 0.802516 0.640201 0.286013
72 1 0.826826 0.547652 0.38019
355 2 0.945276 0.59443 0.329945
124 1 0.0441683 0.99612 0.328467
248 1 0.201032 0.966844 0.398988
52 1 0.0775645 0.845572 0.389511
81 1 0.0347039 0.836385 0.25118
332 2 0.231759 0.848489 0.437174
250 1 0.315902 0.808533 0.358585
184 1 0.341215 0.925674 0.439863
46 1 0.455424 0.842971 0.342338
129 1 0.287712 0.938262 0.281792
84 1 0.632421 0.988637 0.251217
136 1 0.667209 0.95368 0.484757
317 2 0.707669 0.939717 0.363003
63 1 0.646442 0.824772 0.430755
188 1 0.508882 0.919615 0.468414
309 2 0.542924 0.935925 0.322298
95 1 0.635264 0.846007 0.267415
19 1 0.825152 0.947516 0.471022
14 1 0.805884 0.976857 0.266568
10 1 0.785611 0.830955 0.359709
75 1 0.943574 0.895627 0.367569
328 2 0.915695 0.773454 0.320998
262 1 0.977907 0.974628 0.4921
151 1 0.142063 0.0872379 0.607627
102 1 0.188762 0.00691772 0.729168
331 2 0.0590675 0.15927 0.657386
335 2 0.20473 0.208597 0.540214
260 1 0.028766 0.191799 0.533052
165 1 0.321061 0.0242908 0.637278
58 1 0.27632 0.161171 0.642595
312 2 0.36484 0.144432 0.721515
183 1 0.480052 0.00595563 0.616352
114 1 0.416366 0.179331 0.619505
321 2 0.418789 0.0329065 0.711527
205 1 0.412857 0.0658287 0.507039
216 1 0.602108 0.0820191 0.534342
291 2 0.521131 0.117393 0.645959
149 1 0.749042 0.193978 0.551052
64 1 0.65738 0.115055 0.674461
223 1 0.606772 0.233146 0.578383
163 1 0.556439 0.0300486 0.744952
348 2 0.74278 0.0707354 0.500949
320 2 0.899297 0.237796 0.526268
257 1 0.828667 0.156207 0.67883
137 1 0.760976 0.0416896 0.617251
150 1 0.959168 0.223773 0.712702
73 1 0.971224 0.0711416 0.681375
191 1 0.881684 0.0988779 0.541411
359 2 0.998196 0.0792711 0.562443
177 1 0.0964697 0.276439 0.643029
325 2 0.216605 0.270729 0.696139
203 1 0.208341 0.393565 0.659668
77 1 0.0911517 0.480201 0.527817
290 2 0.24135 0.450871 0.538952
217 1 0.0481329 0.441515 0.670475
50 1 0.176589 0.333043 0.506048
5 1 0.326574 0.309552 0.59448
333 2 0.418153 0.375467 0.639933
237 1 0.35751 0.277459 0.744127
38 1 0.326016 0.481765 0.642213
230 1 0.455358 0.495091 0.577636
119 1 0.508229 0.341532 0.566903
255 1 0.719334 0.259946 0.706173
128 1 0.519128 0.289464 0.711774
242 1 0.571211 0.456395 0.660262
243 1 0.680588 0.36063 0.591057
26 1 0.741748 0.417169 0.717084
286 1 0.597523 0.468264 0.51835
245 1 0.996226 0.371391 0.521247
176 1 0.84921 0.304471 0.625184
179 1 0.892661 0.460424 0.614496
311 2 0.96476 0.339374 0.687506
356 2 0.781946 0.428503 0.556977
201 1 0.128846 0.62325 0.578902
277 1 0.177982 0.52991 0.699438
285 1 0.174151 0.692013 0.704118
282 1 0.0228079 0.627285 0.686564
336 2 0.203254 0.736975 0.586405
86 1 0.0480461 0.736928 0.509228
313 2 0.25887 0.606291 0.640615
270 1 0.409051 0.621802 0.703708
182 1 0.428016 0.640226 0.561143
147 1 0.319675 0.731499 0.654011
324 2 0.36096 0.533247 0.512485
276 1 0.263392 0.611805 0.514541
35 1 0.684082 0.551419 0.615474
85 1 0.604931 0.564462 0.746218
186 1 0.561551 0.642283 0.618219
159 1 0.748475 0.693258 0.659149
126 1 0.802341 0.56898 0.537204
268 1 0.843874 0.587838 0.689688
244 1 0.916702 0.669264 0.559666
342 2 0.973095 0.562539 0.585474
49 1 0.0663205 0.966573 0.63481
215 1 0.00932446 0.768307 0.742236
196 1 0.14517 0.895744 0.514051
100 1 0.174265 0.858729 0.668375
199 1 0.0170123 0.829857 0.613235
220 1 0.275656 0.836362 0.551577
281 1 0.47841 0.752546 0.658149
238 1 0.41654 0.866402 0.584945
69 1 0.325558 0.882922 0.713491
211 1 0.632325 0.810538 0.731906
48 1 0.500071 0.891749 0.704617
345 2 0.548051 0.8605 0.590261
60 1 0.628313 0.965657 0.626894
152 1 0.646029 0.763738 0.599431
169 1 0.514792 0.761665 0.506615
228 1 0.884718 0.955971 0.634667
27 1 0.756073 0.885317 0.606104
107 1 0.980997 0.91348 0.747755
132 1 0.863982 0.788112 0.645577
314 2 0.766589 0.810527 0.72349
30 1 0.771716 0.767793 0.512543
200 1 0.928192 0.831336 0.5137
172 1 0.0981333 0.168393 0.779126
330 2 0.0726331 0.0319709 0.758368
135 1 0.23985 0.198796 0.791579
315 2 0.0351632 0.110494 0.883749
101 1 0.155376 0.101624 0.903336
44 1 0.0626465 0.244346 0.901369
53 1 0.416567 0.0711251 0.948659
249 1 0.345874 0.193558 0.885133
70 1 0.477994 0.154168 0.752358
32 1 0.344843 0.0560495 0.821374
246 1 0.265779 0.0366314 0.992403
299 2 0.605278 0.136285 0.771861
190 1 0.620828 0.249816 0.828185
20 1 0.551571 0.236907 0.959735
92 1 0.547352 0.0871413 0.882726
354 2 0.679884 0.0600012 0.863151
158 1 0.740082 0.140353 0.792222
204 1 0.678889 0.165973 0.933505
300 2 0.647044 0.0196349 0.978731
145 1 0.917878 0.0955572 0.969335
269 1 0.934777 0.171309 0.839639
99 1 0.834481 0.0522768 0.845759
130 1 0.805024 0.249681 0.985632
298 2 0.804983 0.229602 0.854615
318 2 0.928003 0.220695 0.992837
59 1 0.770425 0.0595824 0.997321
173 1 0.153263 0.324475 0.794483
131 1 0.00982191 0.362037 0.799835
334 2 0.157298 0.455147 0.778118
90 1 0.12202 0.41375 0.903028
192 1 0.217044 0.271455 0.927087
29 1 0.443702 0.416533 0.752962
229 1 0.278457 0.422079 0.790147
351 2 0.370159 0.36918 0.86123
202 1 0.2676 0.436127 0.968583
153 1 0.407189 0.417015 0.995491
154 1 0.482196 0.323214 0.854938
294 2 0.506445 0.359997 0.968506
36 1 0.634206 0.370815 0.884085
89 1 0.536447 0.475251 0.93331
327 2 0.67519 0.306466 0.977144
308 2 0.572559 0.43764 0.788666
94 1 0.683661 0.491027 0.987336
66 1 0.792358 0.400018 0.893433
125 1 0.847755 0.31225 0.772807
42 1 0.915032 0.314887 0.910676
3 1 0.873 0.456995 0.771354
148 1 0.967702 0.453632 0.903568
180 1 0.0455222 0.518961 0.787097
1 1 0.189494 0.545609 0.877206
289 2 0.203995 0.694439 0.933762
360 2 0.0176305 0.581558 0.927735
9 1 0.0840216 0.664194 0.82162
231 1 0.109387 0.631778 0.975613
349 2 0.201616 0.545607 0.989317
219 1 0.384259 0.517797 0.867348
43 1 0.284169 0.664454 0.807196
206 1 0.298219 0.611941 0.95052
168 1 0.434403 0.671783 0.893617
347 2 0.501566 0.567597 0.833119
279 1 0.538351 0.692947 0.782371
227 1 0.699284 0.686493 0.986765
224 1 0.589039 0.604299 0.923071
39 1 0.730147 0.524678 0.830624
175 1 0.695176 0.683378 0.821055
221 1 0.849837 0.721625 0.778009
254 1 0.964624 0.680586 0.991033
209 1 0.82131 0.549935 0.941906
341 2 0.802628 0.621034 0.826441
297 2 0.946722 0.746573 0.852588
239 1 0.822283 0.704514 0.926948
253 1 0.933763 0.607058 0.82842
13 1 0.169766 0.895905 0.989105
213 1 0.0418068 0.983243 0.975112
306 2 0.0947136 0.81541 0.799986
83 1 0.238061 0.975551 0.864289
166 1 0.0931248 0.92958 0.837642
120 1 0.219196 0.806951 0.812656
170 1 0.0526292 0.778172 0.907107
338 2 0.0310133 0.856976 0.99134
226 1 0.463574 0.964703 0.840221
41 1 0.34569 0.916624 0.974149
251 1 0.310511 0.77075 0.947055
293 2 0.35937 0.88629 0.832558
232 1 0.393174 0.775829 0.790401
28 1 0.457148 0.824473 0.915291
278 1 0.601486 0.789396 0.873789
134 1 0.625253 0.943769 0.866031
189 1 0.729486 0.963559 0.758147
162 1 0.500988 0.965641 0.985852
323 2 0.705265 0.855494 0.82542
329 2 0.514589 0.819275 0.803577
11 1 0.673067 0.858705 0.999351
33 1 0.852942 0.871995 0.795174
271 1 0.774875 0.9192 0.920235
352 2 0.840156 0.814066 0.925696
155 1 0.935464 0.962527 0.894764
ITEM: TIMESTEP
10000
ITEM: NUMBER OF ATOMS
360
ITEM: BOX BOUNDS pp pp pp
0.0000000000000000e+00 6.6943295008216896e+00
0.0000000000000000e+00 6.6943295008216896e+00
0.0000000000000000e+00 6.6943295008216896e+00
ITEM: ATOMS id type xs ys zs
24 1 0.151823 0.206604 0.0801376
284 1 -0.00165702 0.857187 0.30243
112 1 0.101728 0.103854 0.244894
310 2 0.0784774 0.0851356 0.0829104
57 1 0.199679 0.0562612 0.111815
111 1 0.0478086 0.904555 -0.00105224
337 2 0.208326 0.164488 0.209501
353 2 0.346572 0.997326 0.137
123 1 0.504152 0.131129 0.151075
8 1 0.321506 0.143109 0.139958
84 1 0.533627 0.990142 0.217752
212 1 0.609405 0.0690778 0.0563546
327 2 0.612505 0.0905669 0.202259
144 1 0.558707 0.29378 0.126555
79 1 0.592763 0.206768 0.249039
106 1 0.72512 0.134428 0.176051
204 1 0.854521 0.0604272 0.139888
21 1 0.988965 0.164211 0.12432
283 1 0.891315 0.173 0.24601
42 1 0.876463 0.178508 0.0185157
318 2 0.924121 0.92508 0.0642188
97 1 0.203031 0.454725 0.205198
349 2 0.321822 0.49096 0.225581
339 2 0.0924491 0.49672 0.183748
207 1 0.0629185 0.417074 0.0614746
326 2 0.131662 0.35226 0.163359
115 1 0.435787 0.548721 0.00822323
88 1 0.190817 0.337115 0.0222081
141 1 0.279732 0.291554 0.129145
15 1 0.420666 0.23536 0.0662257
160 1 0.295538 0.430301 0.0628849
16 1 0.425028 0.371684 0.130681
74 1 0.335027 0.377111 0.261764
263 1 0.455383 0.510836 0.177275
23 1 0.55892 0.448416 0.0755572
208 1 0.916685 0.466635 0.0115698
34 1 0.687164 0.395865 0.130363
117 1 0.787225 0.267078 0.15945
292 2 0.661364 0.310111 0.232054
244 1 0.9193 0.623053 0.468799
2 1 0.94007 0.325952 0.0824969
110 1 0.843597 0.460798 0.155645
187 1 0.0111454 0.401233 0.199272
356 2 0.827423 0.467309 0.290161
77 1 0.132745 0.395054 0.477759
61 1 0.730591 0.816943 0.352081
287 1 0.186842 0.529647 0.0676428
7 1 0.0797321 0.657933 0.131396
360 2 0.0345229 0.547782 0.050922
52 1 0.975724 0.684544 0.256012
240 1 0.199939 0.610786 0.211452
247 1 0.87634 0.0339898 0.444114
301 2 0.5829 0.564651 0.122355
133 1 0.32 0.558522 0.121262
113 1 0.270857 0.695897 0.0859388
280 1 0.46538 0.644268 0.125655
275 1 0.53493 0.799468 0.488033
93 1 0.685945 0.65116 0.103426
6 1 0.584263 0.762158 0.142127
105 1 0.731182 0.548701 0.212558
161 1 0.548096 0.619265 0.25095
94 1 0.78025 0.54267 0.0556231
103 1 0.713211 0.701644 0.247373
194 1 0.837441 0.664754 0.144477
298 2 0.735587 0.0688976 0.0623454
304 2 0.962687 0.703008 0.117348
40 1 0.957401 0.564053 0.150531
59 1 0.0217307 0.997459 0.13716
71 1 0.153338 0.783603 0.120423
338 2 0.160284 0.925849 0.0748332
251 1 0.274794 0.89492 0.118455
12 1 0.0123754 0.840549 0.146464
344 2 0.668086 0.516856 0.0067939
17 1 0.397646 0.772089 0.129861
129 1 0.261616 1.00077 0.234112
171 1 0.441942 0.939318 0.0888348
222 1 0.265181 0.772263 0.232728
46 1 0.480329 0.74961 0.254605
236 1 0.704167 0.984391 0.172062
230 1 0.490334 0.53947 0.493794
55 1 0.586753 0.916602 0.102123
274 1 0.727418 0.831976 0.141999
309 2 0.507374 0.8637 0.186002
92 1 0.798134 0.951973 0.0478905
81 1 0.883514 0.805336 0.0728109
300 2 0.761556 0.918347 0.261965
127 1 0.8602 0.784685 0.261918
51 1 0.943001 0.791588 0.421348
116 1 0.876914 0.927859 0.190064
4 1 0.941734 0.622692 0.0164439
98 1 0.294705 0.135276 0.30271
151 1 0.213516 0.107933 0.44476
248 1 0.0450018 0.124141 0.383305
322 2 0.172346 0.174744 0.341208
78 1 0.404558 0.0583203 0.237687
68 1 0.307237 0.995369 0.379031
193 1 0.412757 0.191152 0.399624
316 2 0.50372 0.116219 0.297607
258 1 0.46116 0.0261369 0.3906
122 1 0.399137 0.24137 0.250682
302 2 0.507978 0.252745 0.33225
335 2 0.333185 0.107257 0.429681
54 1 0.622495 0.0343287 0.327462
142 1 0.598553 0.16757 0.394709
348 2 0.595755 0.0690047 0.488265
67 1 0.741145 0.222023 0.311116
210 1 0.757141 0.144922 0.442017
178 1 0.9514 0.0220831 0.304087
307 2 0.872101 0.116073 0.354459
96 1 0.0525251 0.257309 0.241043
11 1 0.63312 0.790015 0.0126056
14 1 0.781424 0.0595793 0.293677
76 1 0.107883 0.264685 0.402036
259 1 0.0969465 0.384208 0.316619
340 2 0.145599 0.482752 0.379134
252 1 0.239025 0.393679 0.381855
130 1 0.869408 0.903964 0.35762
139 1 0.196471 0.284894 0.259585
234 1 0.366256 0.450314 0.459862
140 1 0.278321 0.25332 0.39154
295 2 0.394495 0.335834 0.356964
233 1 0.489198 0.365205 0.275475
80 1 0.475698 0.345667 0.455222
272 1 0.404999 0.491939 0.322682
305 2 0.361787 0.331227 0.489576
214 1 0.611665 0.329647 0.351756
198 1 0.598316 0.471262 0.231669
243 1 0.697297 0.445664 0.403775
126 1 0.576906 0.521117 0.377538
138 1 0.913711 0.243819 0.382488
65 1 0.730982 0.386382 0.270546
265 1 0.87899 0.334413 0.27675
121 1 0.990036 0.365133 0.431245
31 1 0.821425 0.364028 0.411276
108 1 0.247941 0.540692 0.327802
267 1 0.0876557 0.569062 0.288667
185 1 0.227169 0.512037 0.473459
47 1 0.244539 0.694055 0.355278
355 2 0.984088 0.606836 0.353826
250 1 0.0670727 0.683868 0.410647
276 1 0.0388178 0.520874 0.43479
286 1 0.487906 0.667649 0.40748
218 1 0.364655 0.638544 0.264287
164 1 0.356263 0.603679 0.420151
45 1 0.715695 0.599826 0.359867
87 1 0.59679 0.73822 0.358609
109 1 0.626782 0.612003 0.492723
225 1 0.860985 0.598152 0.280631
264 1 0.950773 0.471447 0.314218
72 1 0.831682 0.509348 0.409928
328 2 0.697184 0.743493 0.453393
197 1 0.817937 0.695609 0.386084
255 1 0.678151 0.296066 0.484209
20 1 0.692116 0.210681 0.0469061
156 1 0.129954 0.906702 0.216354
124 1 0.096315 0.835809 0.408416
343 2 0.221 0.795207 0.449942
13 1 0.110843 0.752988 0.273349
62 1 0.154361 0.991806 0.339855
184 1 0.236838 0.865604 0.350774
262 1 0.014695 0.974492 0.427788
157 1 0.377096 0.900733 0.24002
238 1 0.384065 0.875837 0.44412
169 1 0.380067 0.757383 0.362071
303 2 0.379263 0.67829 0.0363929
95 1 0.629551 0.867741 0.24554
174 1 0.730511 0.966303 0.396081
188 1 0.495847 0.876168 0.337837
63 1 0.655233 0.874417 0.465101
291 2 0.525198 0.224693 0.485776
18 1 0.79482 0.355315 0.0277615
331 2 0.082646 0.166683 0.491143
49 1 0.209877 0.924341 0.490234
136 1 0.516371 0.95039 0.509836
146 1 0.564947 0.648932 -0.00403692
162 1 0.418109 0.0975101 0.0194244
359 2 0.13512 0.0269188 0.483716
246 1 0.274971 0.194766 0.00737643
266 1 0.0200449 0.757111 0.0150964
143 1 0.297361 0.00454893 0.00700257
261 1 0.377467 0.715815 0.524298
58 1 0.0896454 0.120461 0.607378
100 1 0.279876 0.989616 0.664997
145 1 0.926664 0.0341879 0.985826
102 1 0.261472 0.123035 0.583224
312 2 0.448971 0.0595159 0.654495
205 1 0.362902 0.225249 0.544759
165 1 0.335581 0.0194058 0.518482
69 1 0.385598 0.996866 0.774092
114 1 0.498157 0.172849 0.680051
235 1 0.77775 0.60538 0.509863
216 1 0.478639 0.102397 0.537735
137 1 0.710603 0.0626065 0.696006
128 1 0.636323 0.279829 0.711609
223 1 0.534871 0.290282 0.598593
19 1 0.693478 0.0248132 0.542982
149 1 0.632726 0.172138 0.589876
64 1 0.76273 0.277727 0.622897
191 1 0.976667 0.0395509 0.592141
73 1 0.862177 0.0873792 0.725763
150 1 0.944946 0.188104 0.666029
257 1 0.816421 0.125442 0.585834
44 1 0.101808 0.264408 0.69605
5 1 0.270346 0.278123 0.668531
104 1 0.201713 0.266136 0.525528
290 2 0.120648 0.356106 0.60919
50 1 0.0466612 0.272304 0.545555
201 1 0.00904115 0.432926 0.659566
118 1 0.10679 0.499581 0.583919
346 2 0.311328 0.323405 0.994147
237 1 0.415986 0.301117 0.681515
82 1 0.190257 0.857097 0.979381
56 1 0.273253 0.42096 0.596605
119 1 0.443301 0.420143 0.59842
229 1 0.341088 0.3864 0.774718
242 1 0.594474 0.429843 0.516537
154 1 0.699706 0.44593 0.676466
308 2 0.644786 0.352917 0.606084
333 2 0.554243 0.420547 0.644658
350 2 0.68557 0.50139 0.537038
90 1 0.0258742 0.191874 0.965578
256 1 0.905041 0.306293 0.542165
320 2 0.972425 0.306517 0.699747
176 1 0.749938 0.350803 0.778343
179 1 0.770237 0.407142 0.540349
217 1 0.854106 0.389041 0.659127
26 1 0.791204 0.553621 0.764964
213 1 0.0907576 0.0504755 0.960382
336 2 0.0247853 0.562824 0.642079
182 1 0.148006 0.61563 0.668602
282 1 0.0454368 0.649475 0.552665
253 1 0.890507 0.60193 0.645939
38 1 0.33344 0.547214 0.581324
313 2 0.4617 0.538274 0.629887
277 1 0.266052 0.525624 0.713424
324 2 0.37182 0.647728 0.651181
270 1 0.471965 0.602892 0.747897
281 1 0.509101 0.661334 0.593394
35 1 0.706578 0.631374 0.640187
186 1 0.586303 0.536093 0.637895
279 1 0.590544 0.718059 0.716406
159 1 0.65414 0.753108 0.570383
342 2 0.799459 0.530595 0.606253
30 1 0.907566 0.734038 0.575896
231 1 0.0897211 0.629954 0.968551
75 1 0.799595 0.800028 0.51664
211 1 0.78662 0.759703 0.675989
39 1 0.929592 0.527617 0.762814
86 1 0.137291 0.779833 0.7314
199 1 0.101097 0.940345 0.584879
332 2 0.200125 0.870113 0.637017
196 1 0.132833 0.789872 0.568094
147 1 0.255619 0.722587 0.654411
220 1 0.304872 0.843696 0.570331
48 1 0.414679 0.77315 0.679161
293 2 0.357761 0.881508 0.71298
345 2 0.439843 0.829688 0.560071
183 1 0.421783 0.940331 0.621904
289 2 0.192016 0.72844 0.996181
91 1 0.191885 0.671928 0.518956
10 1 0.693612 0.895061 0.634514
60 1 0.580124 0.0190463 0.628115
152 1 0.547738 0.850753 0.651748
163 1 0.663455 0.850513 0.765472
314 2 0.864736 0.867846 0.655912
200 1 0.00538852 0.826364 0.644228
132 1 0.959674 0.811318 0.78343
27 1 0.80024 0.942409 0.771651
228 1 0.827336 0.979687 0.622522
33 1 0.956304 0.955886 0.729701
181 1 0.910665 0.899322 0.900631
273 1 0.151169 0.172655 0.887678
101 1 0.194693 0.123005 0.751896
173 1 0.0107764 0.212587 0.827914
315 2 0.129236 0.0524263 0.823097
330 2 0.259704 0.020268 0.792303
260 1 0.952469 0.155526 0.50142
32 1 0.346538 0.144925 0.701365
226 1 0.476892 0.106458 0.827449
271 1 0.777745 0.825382 0.980325
83 1 0.296265 0.10005 0.879971
321 2 0.560718 0.0553169 0.745587
249 1 0.514239 0.278185 0.798955
70 1 0.625235 0.162437 0.809561
294 2 0.656417 0.304732 0.836398
25 1 0.70469 0.101275 0.940535
288 1 0.539494 0.202103 0.940078
53 1 0.541936 0.0229248 0.927011
352 2 0.886518 0.0196042 0.826982
172 1 0.0306158 0.0806339 0.757728
299 2 0.758978 0.0936067 0.811259
296 2 0.991318 0.0905278 0.888612
190 1 0.76606 0.197637 0.75099
22 1 0.920095 0.907788 0.534452
99 1 0.870863 0.140693 0.873357
203 1 0.16888 0.388996 0.728309
325 2 0.129165 0.296474 0.825765
177 1 0.0231503 0.372237 0.801308
192 1 0.261244 0.274847 0.869409
148 1 0.0776214 0.326732 0.930689
254 1 0.00983641 0.487225 0.906891
311 2 0.142941 0.446288 0.975066
206 1 0.336683 0.81283 0.988896
135 1 0.398084 0.239606 0.915557
167 1 0.279814 0.415929 0.904589
334 2 0.137273 0.418528 0.855212
351 2 0.383187 0.265219 0.789535
155 1 0.0511573 0.959294 0.850854
29 1 0.47673 0.436603 0.743463
219 1 0.471936 0.402222 0.895511
153 1 0.611011 0.417348 0.796386
66 1 0.716374 0.450497 0.904712
195 1 0.627882 0.338484 0.977548
269 1 0.875861 0.277391 0.784388
36 1 0.761634 0.264751 0.897094
125 1 0.926113 0.304362 0.936886
3 1 0.870874 0.414002 0.854791
9 1 0.139971 0.654114 0.819847
180 1 0.0855834 0.510699 0.767876
131 1 0.181295 0.528164 0.891397
239 1 0.994193 0.639084 0.858387
158 1 0.805617 0.00212528 0.906265
245 1 0.912012 0.468662 0.524047
285 1 0.328885 0.656331 0.775226
1 1 0.245676 0.76188 0.872001
168 1 0.412328 0.692687 0.909131
85 1 0.390574 0.534813 0.853436
221 1 0.817704 0.802412 0.830499
341 2 0.707051 0.72909 0.925985
215 1 0.01639 0.664121 0.711578
89 1 0.628494 0.56201 0.778657
175 1 0.713893 0.696251 0.799333
347 2 0.520339 0.619978 0.868042
227 1 0.698118 0.608955 0.920999
224 1 0.575043 0.517898 0.91859
278 1 0.582618 0.733383 0.865516
354 2 0.930239 0.744814 0.90761
209 1 0.861106 0.556295 0.90306
268 1 0.871323 0.679731 0.782656
37 1 0.823099 0.6887 0.955645
297 2 0.0750215 0.879259 0.739907
107 1 0.144321 0.98292 0.720732
120 1 0.234393 0.880171 0.773032
306 2 0.301368 0.775282 0.756417
202 1 0.273173 0.629041 0.954101
166 1 0.196412 0.97288 0.896221
170 1 0.0753334 0.783139 0.876502
232 1 0.522625 0.941179 0.765977
357 2 0.306641 0.888452 0.89418
43 1 0.424629 0.840255 0.82874
41 1 0.413061 0.960745 0.912898
323 2 0.712423 0.882781 0.892174
134 1 0.671873 0.939314 0.986578
28 1 0.565229 0.87361 0.889804
329 2 0.517602 0.800528 0.764911
189 1 0.652605 0.00675384 0.829115
317 2 0.768287 0.92441 0.532328
319 2 0.19866 0.0971131 0.979875
241 1 0.482187 0.816013 0.998259
358 2 0.500796 0.325106 0.994379
ITEM: TIMESTEP
20000
ITEM: NUMBER OF ATOMS
360
ITEM: BOX BOUNDS pp pp pp
0.0000000000000000e+00 6.6943295008216896e+00
0.0000000000000000e+00 6.6943295008216896e+00
0.0000000000000000e+00 6.6943295008216896e+00
ITEM: ATOMS id type xs ys zs
337 2 0.0674573 0.114512 0.178552
4 1 0.943238 0.751768 0.0167515
141 1 0.159438 0.255222 0.0366366
8 1 0.158737 0.115085 0.0803509
145 1 0.00828455 0.0970981 0.0755677
139 1 0.228145 0.198383 0.290182
112 1 0.977347 0.0333194 0.232748
78 1 0.403873 0.132404 0.11238
16 1 0.411532 0.220147 0.249215
302 2 0.419497 0.0642165 0.213501
123 1 0.266801 0.21274 0.136846
122 1 0.299123 0.0430913 0.1483
311 2 0.471606 0.707141 0.0282547
315 2 0.298892 0.126753 0.0413483
106 1 0.703476 0.102934 0.115232
251 1 0.548358 0.0228834 0.144798
63 1 0.740021 0.747828 0.477076
34 1 0.556813 0.167896 0.1433
292 2 0.668237 0.251139 0.13335
42 1 0.991379 0.268217 0.0688416
117 1 0.848915 0.163997 0.0845158
310 2 0.9082 0.0616772 0.119929
265 1 0.950342 0.183138 0.189768
31 1 0.76521 0.240105 0.225189
41 1 0.440316 0.826836 0.0113395
21 1 0.108544 0.229515 0.173108
23 1 0.468954 0.451015 0.0611502
97 1 0.0609096 0.382626 0.119415
340 2 0.0619523 0.436786 0.230434
108 1 0.2441 0.463447 0.244053
326 2 0.0196213 0.317908 0.211111
74 1 0.216954 0.352787 0.138314
160 1 0.384159 0.318661 0.119298
263 1 0.409056 0.463958 0.221533
202 1 0.320305 0.460954 0.0776584
198 1 0.520704 0.355511 0.228157
77 1 0.0154581 0.453376 0.471476
140 1 0.309028 0.322178 0.286218
358 2 0.598402 0.425486 0.166768
225 1 0.665916 0.36092 0.234406
195 1 0.565522 0.325798 0.089293
209 1 0.716985 0.342344 0.0664498
352 2 0.0200273 -0.0116021 0.00915003
2 1 0.81385 0.445223 0.0912356
187 1 0.903926 0.341323 0.173517
110 1 0.852867 0.288119 0.0224244
40 1 0.944187 0.490157 0.182189
356 2 0.780338 0.345518 0.166255
231 1 0.0867198 0.532223 0.0786162
339 2 0.188372 0.48097 0.113955
7 1 0.175074 0.709339 0.152225
267 1 0.11248 0.54629 0.21343
207 1 0.225623 0.59145 0.0370843
20 1 0.690021 0.19708 0.00224949
287 1 0.336429 0.582782 0.166973
113 1 0.325193 0.737775 0.0498214
17 1 0.454957 0.698756 0.154952
222 1 0.324308 0.736193 0.212472
161 1 0.541496 0.555581 0.17604
247 1 0.893114 0.0338278 0.470891
105 1 0.688177 0.515994 0.198151
133 1 0.515052 0.598507 0.0375999
280 1 0.656654 0.696965 0.178181
344 2 0.680899 0.61334 0.0822182
93 1 0.756117 0.712349 0.0508017
266 1 0.0938531 0.666244 -0.00265591
94 1 0.816442 0.600395 0.148778
328 2 0.695456 0.748827 0.358202
360 2 0.898938 0.695402 0.145508
52 1 0.02596 0.666338 0.141283
208 1 0.936095 0.588736 0.0491665
289 2 -0.00762218 0.777353 0.133789
309 2 0.167201 0.852651 0.110838
59 1 0.0925681 0.974306 0.12476
12 1 0.0838821 0.824623 0.197516
111 1 0.0792845 0.820432 0.0284725
174 1 0.824733 0.831314 0.378552
206 1 0.299268 0.880642 0.0388855
338 2 0.208374 0.98938 0.0822174
71 1 0.264268 0.892927 0.208869
46 1 0.485162 0.777887 0.275318
143 1 0.412857 0.964769 0.0860841
303 2 0.409578 0.825707 0.132637
353 2 0.490519 0.0472459 0.0444225
316 2 0.66678 0.974113 0.0925376
6 1 0.530155 0.856585 0.123693
95 1 0.713689 0.949552 0.221638
188 1 0.688205 0.836625 0.125867
300 2 0.905711 0.971088 0.349053
238 1 0.530093 0.864582 0.387583
61 1 0.788968 0.719314 0.265458
116 1 0.947457 0.914738 0.0983561
260 1 0.950563 0.18783 0.448088
274 1 0.837787 0.814194 0.115426
92 1 0.802222 0.959626 0.10078
127 1 0.870678 0.919132 0.238547
96 1 0.0486551 0.172559 0.31602
136 1 0.687278 0.89901 0.411405
57 1 0.176655 0.0677706 0.226666
98 1 0.166669 0.11085 0.398435
318 2 0.0876397 0.0556904 0.313165
51 1 0.92437 0.781906 0.235871
193 1 0.327673 0.0642215 0.307324
64 1 0.474726 0.10643 0.462565
151 1 0.354716 0.18358 0.395711
84 1 0.634449 0.828049 0.271356
54 1 0.495052 0.107382 0.302654
142 1 0.672687 0.0997689 0.285723
67 1 0.610033 0.122396 0.417481
65 1 0.621934 0.236297 0.273755
130 1 0.791513 0.0197258 0.357257
348 2 0.526231 0.0171835 0.386783
68 1 0.297706 0.0481548 0.487942
14 1 0.813769 0.0738996 0.214047
283 1 0.905909 0.115216 0.327729
210 1 0.78284 0.1639 0.402214
252 1 0.154625 0.343939 0.271928
104 1 0.149789 0.449862 0.384643
138 1 0.107467 0.287075 0.404513
259 1 1.00589 0.370168 0.321814
276 1 1.00167 0.531101 0.351377
322 2 0.255013 0.273246 0.401798
295 2 0.290757 0.422213 0.378516
233 1 0.456376 0.43879 0.38602
282 1 0.00319552 0.606103 0.492139
80 1 0.366296 0.331193 0.443458
146 1 0.602935 0.736209 0.0370736
242 1 0.596725 0.354264 0.38861
79 1 0.505301 0.244934 0.366385
126 1 0.5856 0.476665 0.297366
197 1 0.720189 0.470244 0.374084
342 2 0.839473 0.267813 0.46929
66 1 0.82898 0.424086 0.264721
290 2 0.00115642 0.310287 0.467461
214 1 0.737051 0.301207 0.363876
72 1 0.890673 0.275013 0.33007
264 1 0.886099 0.400009 0.412621
319 2 0.059175 0.189719 0.0105429
240 1 0.226538 0.626861 0.281982
91 1 0.132052 0.599412 0.411696
13 1 0.0530523 0.702393 0.287083
284 1 0.977753 0.865916 0.363328
349 2 0.351349 0.526734 0.310123
218 1 0.433882 0.61655 0.291139
164 1 0.252469 0.720309 0.427473
272 1 0.291129 0.572791 0.404802
286 1 0.497308 0.576824 0.443545
275 1 0.400524 0.71646 0.41144
235 1 0.67926 0.600366 0.447075
103 1 0.66262 0.612452 0.302204
301 2 0.552179 0.670191 0.278162
227 1 0.632311 0.489695 0.0475726
87 1 0.577356 0.720521 0.402736
304 2 0.99413 0.90064 0.222843
194 1 0.921523 0.618701 0.256894
250 1 0.922005 0.70227 0.387123
121 1 0.849532 0.54917 0.39352
355 2 0.815102 0.547216 0.265811
317 2 0.786942 0.659834 0.394996
47 1 0.070986 0.754943 0.420881
178 1 0.102333 0.934367 0.287309
262 1 0.0291496 0.0250325 0.437589
156 1 0.19331 0.791458 0.303595
124 1 0.142713 0.884276 0.462067
129 1 0.409403 0.980262 0.403985
157 1 0.448803 0.929489 0.24848
169 1 0.336507 0.827848 0.334955
184 1 0.252157 0.955429 0.360575
236 1 0.580129 0.974937 0.281232
307 2 0.772617 0.831069 0.22173
49 1 0.29759 0.887329 0.483566
258 1 0.586586 0.0069731 0.503143
246 1 0.348316 0.238596 0.0112486
144 1 0.510056 0.197863 0.00722935