ITEM: TIMESTEP
0
ITEM: NUMBER OF ATOMS
360
ITEM: BOX BOUNDS pp pp pp
0.0000000000000000e+00 6.6943295008216896e+00
0.0000000000000000e+00 6.6943295008216896e+00
0.0000000000000000e+00 6.6943295008216896e+00
ITEM: ATOMS id type xs ys zs
1 1 0 0 0
2 1 0.111572 0.111572 0
3 1 0.111572 0 0.111572
4 1 0 0.111572 0.111572
5 1 0.223144 0 0
8 1 0.223144 0.111572 0.111572
19 1 0 0.223144 0
21 1 0.111572 0.223144 0.111572
23 1 0.223144 0.223144 0
82 1 0 0 0.223144
83 1 0.111572 0.111572 0.223144
86 1 0.223144 0 0.223144
100 1 0 0.223144 0.223144
104 1 0.223144 0.223144 0.223144
6 1 0.334716 0.111572 0
7 1 0.334716 0 0.111572
9 1 0.446289 0 0
12 1 0.446289 0.111572 0.111572
25 1 0.334716 0.223144 0.111572
27 1 0.446289 0.223144 0
87 1 0.334716 0.111572 0.223144
90 1 0.446289 0 0.223144
108 1 0.446289 0.223144 0.223144
10 1 0.557861 0.111572 0
11 1 0.557861 0 0.111572
13 1 0.669433 0 0
16 1 0.669433 0.111572 0.111572
29 1 0.557861 0.223144 0.111572
31 1 0.669433 0.223144 0
91 1 0.557861 0.111572 0.223144
94 1 0.669433 0 0.223144
112 1 0.669433 0.223144 0.223144
14 1 0.781005 0.111572 0
15 1 0.781005 0 0.111572
17 1 0.892577 0 0
18 1 0.892577 0.111572 0.111572
33 1 0.781005 0.223144 0.111572
35 1 0.892577 0.223144 0
95 1 0.781005 0.111572 0.223144
98 1 0.892577 0 0.223144
116 1 0.892577 0.223144 0.223144
20 1 0.111572 0.334716 0
22 1 0 0.334716 0.111572
26 1 0.223144 0.334716 0.111572
37 1 0 0.446289 0
39 1 0.111572 0.446289 0.111572
41 1 0.223144 0.446289 0
101 1 0.111572 0.334716 0.223144
118 1 0 0.446289 0.223144
122 1 0.223144 0.446289 0.223144
24 1 0.334716 0.334716 0
30 1 0.446289 0.334716 0.111572
43 1 0.334716 0.446289 0.111572
45 1 0.446289 0.446289 0
105 1 0.334716 0.334716 0.223144
126 1 0.446289 0.446289 0.223144
28 1 0.557861 0.334716 0
34 1 0.669433 0.334716 0.111572
47 1 0.557861 0.446289 0.111572
49 1 0.669433 0.446289 0
109 1 0.557861 0.334716 0.223144
130 1 0.669433 0.446289 0.223144
32 1 0.781005 0.334716 0
36 1 0.892577 0.334716 0.111572
51 1 0.781005 0.446289 0.111572
53 1 0.892577 0.446289 0
113 1 0.781005 0.334716 0.223144
134 1 0.892577 0.446289 0.223144
38 1 0.111572 0.557861 0
40 1 0 0.557861 0.111572
44 1 0.223144 0.557861 0.111572
55 1 0 0.669433 0
57 1 0.111572 0.669433 0.111572
59 1 0.223144 0.669433 0
119 1 0.111572 0.557861 0.223144
136 1 0 0.669433 0.223144
140 1 0.223144 0.669433 0.223144
42 1 0.334716 0.557861 0
48 1 0.446289 0.557861 0.111572
61 1 0.334716 0.669433 0.111572
63 1 0.446289 0.669433 0
123 1 0.334716 0.557861 0.223144
144 1 0.446289 0.669433 0.223144
46 1 0.557861 0.557861 0
52 1 0.669433 0.557861 0.111572
65 1 0.557861 0.669433 0.111572
67 1 0.669433 0.669433 0
127 1 0.557861 0.557861 0.223144
148 1 0.669433 0.669433 0.223144
50 1 0.781005 0.557861 0
54 1 0.892577 0.557861 0.111572
69 1 0.781005 0.669433 0.111572
71 1 0.892577 0.669433 0
131 1 0.781005 0.557861 0.223144
152 1 0.892577 0.669433 0.223144
56 1 0.111572 0.781005 0
58 1 0 0.781005 0.111572
62 1 0.223144 0.781005 0.111572
73 1 0 0.892577 0
74 1 0.111572 0.892577 0.111572
75 1 0.223144 0.892577 0
137 1 0.111572 0.781005 0.223144
154 1 0 0.892577 0.223144
156 1 0.223144 0.892577 0.223144
60 1 0.334716 0.781005 0
66 1 0.446289 0.781005 0.111572
76 1 0.334716 0.892577 0.111572
77 1 0.446289 0.892577 0
141 1 0.334716 0.781005 0.223144
158 1 0.446289 0.892577 0.223144
64 1 0.557861 0.781005 0
70 1 0.669433 0.781005 0.111572
78 1 0.557861 0.892577 0.111572
79 1 0.669433 0.892577 0
145 1 0.557861 0.781005 0.223144
160 1 0.669433 0.892577 0.223144
68 1 0.781005 0.781005 0
72 1 0.892577 0.781005 0.111572
80 1 0.781005 0.892577 0.111572
81 1 0.892577 0.892577 0
149 1 0.781005 0.781005 0.223144
162 1 0.892577 0.892577 0.223144
84 1 0.111572 0 0.334716
85 1 0 0.111572 0.334716
89 1 0.223144 0.111572 0.334716
102 1 0.111572 0.223144 0.334716
163 1 0 0 0.446289
164 1 0.111572 0.111572 0.446289
165 1 0.223144 0 0.446289
172 1 0 0.223144 0.446289
174 1 0.223144 0.223144 0.446289
88 1 0.334716 0 0.334716
93 1 0.446289 0.111572 0.334716
106 1 0.334716 0.223144 0.334716
166 1 0.334716 0.111572 0.446289
167 1 0.446289 0 0.446289
176 1 0.446289 0.223144 0.446289
92 1 0.557861 0 0.334716
97 1 0.669433 0.111572 0.334716
110 1 0.557861 0.223144 0.334716
168 1 0.557861 0.111572 0.446289
169 1 0.669433 0 0.446289
178 1 0.669433 0.223144 0.446289
96 1 0.781005 0 0.334716
99 1 0.892577 0.111572 0.334716
114 1 0.781005 0.223144 0.334716
170 1 0.781005 0.111572 0.446289
171 1 0.892577 0 0.446289
180 1 0.892577 0.223144 0.446289
103 1 0 0.334716 0.334716
107 1 0.223144 0.334716 0.334716
120 1 0.111572 0.446289 0.334716
173 1 0.111572 0.334716 0.446289
181 1 0 0.446289 0.446289
183 1 0.223144 0.446289 0.446289
111 1 0.446289 0.334716 0.334716
124 1 0.334716 0.446289 0.334716
175 1 0.334716 0.334716 0.446289
185 1 0.446289 0.446289 0.446289
115 1 0.669433 0.334716 0.334716
128 1 0.557861 0.446289 0.334716
177 1 0.557861 0.334716 0.446289
187 1 0.669433 0.446289 0.446289
117 1 0.892577 0.334716 0.334716
132 1 0.781005 0.446289 0.334716
179 1 0.781005 0.334716 0.446289
189 1 0.892577 0.446289 0.446289
121 1 0 0.557861 0.334716
125 1 0.223144 0.557861 0.334716
138 1 0.111572 0.669433 0.334716
182 1 0.111572 0.557861 0.446289
190 1 0 0.669433 0.446289
192 1 0.223144 0.669433 0.446289
129 1 0.446289 0.557861 0.334716
142 1 0.334716 0.669433 0.334716
184 1 0.334716 0.557861 0.446289
194 1 0.446289 0.669433 0.446289
133 1 0.669433 0.557861 0.334716
146 1 0.557861 0.669433 0.334716
186 1 0.557861 0.557861 0.446289
196 1 0.669433 0.669433 0.446289
135 1 0.892577 0.557861 0.334716
150 1 0.781005 0.669433 0.334716
188 1 0.781005 0.557861 0.446289
198 1 0.892577 0.669433 0.446289
139 1 0 0.781005 0.334716
143 1 0.223144 0.781005 0.334716
155 1 0.111572 0.892577 0.334716
191 1 0.111572 0.781005 0.446289
199 1 0 0.892577 0.446289
200 1 0.223144 0.892577 0.446289
147 1 0.446289 0.781005 0.334716
157 1 0.334716 0.892577 0.334716
193 1 0.334716 0.781005 0.446289
201 1 0.446289 0.892577 0.446289
151 1 0.669433 0.781005 0.334716
159 1 0.557861 0.892577 0.334716
195 1 0.557861 0.781005 0.446289
202 1 0.669433 0.892577 0.446289
153 1 0.892577 0.781005 0.334716
161 1 0.781005 0.892577 0.334716
197 1 0.781005 0.781005 0.446289
203 1 0.892577 0.892577 0.446289
204 1 0.111572 0 0.557861
205 1 0 0.111572 0.557861
207 1 0.223144 0.111572 0.557861
213 1 0.111572 0.223144 0.557861
244 1 0 0 0.669433
245 1 0.111572 0.111572 0.669433
248 1 0.223144 0 0.669433
262 1 0 0.223144 0.669433
266 1 0.223144 0.223144 0.669433
206 1 0.334716 0 0.557861
209 1 0.446289 0.111572 0.557861
215 1 0.334716 0.223144 0.557861
249 1 0.334716 0.111572 0.669433
252 1 0.446289 0 0.669433
270 1 0.446289 0.223144 0.669433
208 1 0.557861 0 0.557861
211 1 0.669433 0.111572 0.557861
217 1 0.557861 0.223144 0.557861
253 1 0.557861 0.111572 0.669433
256 1 0.669433 0 0.669433
274 1 0.669433 0.223144 0.669433
210 1 0.781005 0 0.557861
212 1 0.892577 0.111572 0.557861
219 1 0.781005 0.223144 0.557861
257 1 0.781005 0.111572 0.669433
260 1 0.892577 0 0.669433
278 1 0.892577 0.223144 0.669433
214 1 0 0.334716 0.557861
216 1 0.223144 0.334716 0.557861
222 1 0.111572 0.446289 0.557861
263 1 0.111572 0.334716 0.669433
280 1 0 0.446289 0.669433
284 1 0.223144 0.446289 0.669433
218 1 0.446289 0.334716 0.557861
224 1 0.334716 0.446289 0.557861
267 1 0.334716 0.334716 0.669433
288 1 0.446289 0.446289 0.669433
220 1 0.669433 0.334716 0.557861
226 1 0.557861 0.446289 0.557861
271 1 0.557861 0.334716 0.669433
292 2 0.669433 0.446289 0.669433
221 1 0.892577 0.334716 0.557861
228 1 0.781005 0.446289 0.557861
275 1 0.781005 0.334716 0.669433
296 2 0.892577 0.446289 0.669433
223 1 0 0.557861 0.557861
225 1 0.223144 0.557861 0.557861
231 1 0.111572 0.669433 0.557861
281 1 0.111572 0.557861 0.669433
298 2 0 0.669433 0.669433
302 2 0.223144 0.669433 0.669433
227 1 0.446289 0.557861 0.557861
233 1 0.334716 0.669433 0.557861
285 1 0.334716 0.557861 0.669433
306 2 0.446289 0.669433 0.669433
229 1 0.669433 0.557861 0.557861
235 1 0.557861 0.669433 0.557861
289 2 0.557861 0.557861 0.669433
310 2 0.669433 0.669433 0.669433
230 1 0.892577 0.557861 0.557861
237 1 0.781005 0.669433 0.557861
293 2 0.781005 0.557861 0.669433
314 2 0.892577 0.669433 0.669433
232 1 0 0.781005 0.557861
234 1 0.223144 0.781005 0.557861
240 1 0.111572 0.892577 0.557861
299 2 0.111572 0.781005 0.669433
316 2 0 0.892577 0.669433
318 2 0.223144 0.892577 0.669433
236 1 0.446289 0.781005 0.557861
241 1 0.334716 0.892577 0.557861
303 2 0.334716 0.781005 0.669433
320 2 0.446289 0.892577 0.669433
238 1 0.669433 0.781005 0.557861
242 1 0.557861 0.892577 0.557861
307 2 0.557861 0.781005 0.669433
322 2 0.669433 0.892577 0.669433
239 1 0.892577 0.781005 0.557861
243 1 0.781005 0.892577 0.557861
311 2 0.781005 0.781005 0.669433
324 2 0.892577 0.892577 0.669433
246 1 0.111572 0 0.781005
247 1 0 0.111572 0.781005
251 1 0.223144 0.111572 0.781005
264 1 0.111572 0.223144 0.781005
325 2 0 0 0.892577
326 2 0.111572 0.111572 0.892577
327 2 0.223144 0 0.892577
334 2 0 0.223144 0.892577
336 2 0.223144 0.223144 0.892577
250 1 0.334716 0 0.781005
255 1 0.446289 0.111572 0.781005
268 1 0.334716 0.223144 0.781005
328 2 0.334716 0.111572 0.892577
329 2 0.446289 0 0.892577
338 2 0.446289 0.223144 0.892577
254 1 0.557861 0 0.781005
259 1 0.669433 0.111572 0.781005
272 1 0.557861 0.223144 0.781005
330 2 0.557861 0.111572 0.892577
331 2 0.669433 0 0.892577
340 2 0.669433 0.223144 0.892577
258 1 0.781005 0 0.781005
261 1 0.892577 0.111572 0.781005
276 1 0.781005 0.223144 0.781005
332 2 0.781005 0.111572 0.892577
333 2 0.892577 0 0.892577
342 2 0.892577 0.223144 0.892577
265 1 0 0.334716 0.781005
269 1 0.223144 0.334716 0.781005
282 1 0.111572 0.446289 0.781005
335 2 0.111572 0.334716 0.892577
343 2 0 0.446289 0.892577
345 2 0.223144 0.446289 0.892577
273 1 0.446289 0.334716 0.781005
286 1 0.334716 0.446289 0.781005
337 2 0.334716 0.334716 0.892577
347 2 0.446289 0.446289 0.892577
277 1 0.669433 0.334716 0.781005
290 2 0.557861 0.446289 0.781005
339 2 0.557861 0.334716 0.892577
349 2 0.669433 0.446289 0.892577
279 1 0.892577 0.334716 0.781005
294 2 0.781005 0.446289 0.781005
341 2 0.781005 0.334716 0.892577
351 2 0.892577 0.446289 0.892577
283 1 0 0.557861 0.781005
287 1 0.223144 0.557861 0.781005
300 2 0.111572 0.669433 0.781005
344 2 0.111572 0.557861 0.892577
352 2 0 0.669433 0.892577
354 2 0.223144 0.669433 0.892577
291 2 0.446289 0.557861 0.781005
304 2 0.334716 0.669433 0.781005
346 2 0.334716 0.557861 0.892577
356 2 0.446289 0.669433 0.892577
295 2 0.669433 0.557861 0.781005
308 2 0.557861 0.669433 0.781005
348 2 0.557861 0.557861 0.892577
358 2 0.669433 0.669433 0.892577
297 2 0.892577 0.557861 0.781005
312 2 0.781005 0.669433 0.781005
350 2 0.781005 0.557861 0.892577
360 2 0.892577 0.669433 0.892577
301 2 0 0.781005 0.781005
305 2 0.223144 0.781005 0.781005
317 2 0.111572 0.892577 0.781005
353 2 0.111572 0.781005 0.892577
309 2 0.446289 0.781005 0.781005
319 2 0.334716 0.892577 0.781005
355 2 0.334716 0.781005 0.892577
313 2 0.669433 0.781005 0.781005
321 2 0.557861 0.892577 0.781005
357 2 0.557861 0.781005 0.892577
315 2 0.892577 0.781005 0.781005
323 2 0.781005 0.892577 0.781005
359 2 0.781005 0.781005 0.892577
ITEM: TIMESTEP
10000
ITEM: NUMBER OF ATOMS
360
ITEM: BOX BOUNDS pp pp pp
0.0000000000000000e+00 6.6943295008216896e+00
0.0000000000000000e+00 6.6943295008216896e+00
0.0000000000000000e+00 6.6943295008216896e+00
ITEM: ATOMS id type xs ys zs
4 1 0.0208333 0.0137917 0.134685
97 1 0.175121 0.179018 0.0792874
315 2 0.0600756 0.0916608 0.0379039
181 1 0.00185181 0.164101 0.172888
332 2 0.143307 0.158041 0.22625
8 1 0.238048 0.0948458 0.178112
139 1 0.120194 0.0471458 0.232733
156 1 0.147286 0.0188004 0.0860706
144 1 0.434243 0.0924929 0.0221285
101 1 0.304608 0.101463 0.0430272
24 1 0.397427 0.122221 0.170724
192 1 0.29383 0.233532 0.0397575
274 1 0.702916 0.0535642 0.123774
10 1 0.72551 0.162219 0.199189
327 2 0.585241 0.221722 0.0444717
79 1 0.599342 0.104769 0.184155
14 1 0.565731 0.0441046 0.0401211
129 1 0.534036 0.00164419 0.245983
346 2 0.50973 0.131462 0.131683
316 2 0.767319 0.238849 0.117963
283 1 0.918465 0.115264 0.0545268
67 1 0.792732 0.119431 0.0241665
307 2 0.975343 0.066464 0.229441
22 1 0.838653 0.0527035 0.240217
337 2 0.222846 0.309669 0.121466
88 1 0.00153178 0.444197 0.0528436
213 1 0.190946 0.276212 0.221905
145 1 0.105605 0.413331 0.141887
167 1 0.0108422 0.499119 0.219981
31 1 0.00611367 0.291935 0.115137
319 2 0.102 0.260072 0.0330873
172 1 0.177803 0.367939 0.0195363
123 1 0.423764 0.289282 0.134157
2 1 0.2854 0.441042 0.139597
108 1 0.325686 0.35902 0.238459
280 1 0.377356 0.498531 0.23518
194 1 0.482186 0.470299 0.139298
104 1 0.495738 0.350216 0.240974
89 1 0.483579 0.266792 0.00795258
235 1 0.725656 0.303574 0.202223
93 1 0.592832 0.296219 0.127207
34 1 0.732589 0.380286 0.0572912
160 1 0.530669 0.417065 0.000478594
94 1 0.629321 0.453908 0.0966956
82 1 0.723898 0.453782 0.193517
138 1 0.907468 0.339715 0.0325262
287 1 0.846653 0.468056 0.0728788
106 1 0.876173 0.250772 0.216295
208 1 0.967797 0.37217 0.237462
247 1 0.830211 0.382945 0.175105
1 1 0.142232 0.574376 0.156904
17 1 0.216525 0.675558 0.211526
15 1 0.1914 0.505404 0.0261931
28 1 0.0857287 0.633765 0.0397687
272 1 0.114551 0.742485 0.139306
133 1 0.257534 0.614617 0.0653463
171 1 0.390366 0.640036 0.0271172
202 1 0.367218 0.510099 0.0355982
317 2 0.469366 0.682958 0.0741372
357 2 0.270753 0.522713 0.211779
143 1 0.317218 0.745909 0.0973688
164 1 0.397553 0.730275 0.234018
197 1 0.711442 0.569235 0.108116
84 1 0.561617 0.708697 0.209003
218 1 0.530959 0.575676 0.223236
338 2 0.65567 0.655006 0.154616
265 1 0.677658 0.585686 0.237552
6 1 0.553501 0.603087 0.100263
267 1 0.899096 0.591713 0.0122297
127 1 0.848809 0.682326 0.227296
240 1 0.789657 0.744981 0.100174
12 1 0.952901 0.747976 0.129981
113 1 0.94534 0.594255 0.127668
7 1 0.756711 0.648406 0.0091932
250 1 0.218743 0.844783 0.220869
62 1 0.166759 0.855801 0.0287254
254 1 0.0483038 0.869925 0.147925
251 1 0.0418986 0.801904 0.0359665
57 1 0.337493 0.96117 0.165272
53 1 0.41423 0.954012 0.0413222
134 1 0.432429 0.808652 0.0752998
45 1 0.696758 0.756614 0.24146
161 1 0.583766 0.84858 0.0811634
300 2 0.681696 0.956796 0.162935
353 2 0.674799 0.969048 0.0205856
25 1 0.506598 0.963834 0.13754
95 1 0.716728 0.865257 0.113181
162 1 0.617382 0.878548 0.236703
352 2 0.906152 0.989603 0.0174846
142 1 0.869861 0.95499 0.158868
37 1 0.801063 0.969183 0.0478347
225 1 0.766746 0.923149 0.226722
231 1 0.915403 0.859485 0.0607145
21 1 0.107229 0.140684 0.330161
124 1 0.140744 0.123779 0.482895
340 2 0.0386063 0.182272 0.408569
269 1 0.0639508 0.243175 0.261793
191 1 0.0132448 0.0627218 0.380498
248 1 0.477711 0.117608 0.344978
122 1 0.281813 0.142541 0.3871
212 1 0.372915 0.226659 0.304109
328 2 0.453091 0.194383 0.448774
76 1 0.350748 0.0455445 0.414868
80 1 0.546548 0.209521 0.258872
348 2 0.735618 0.0441385 0.280574
236 1 0.630449 0.110462 0.375572
78 1 0.580057 0.0156042 0.453392
356 2 0.781616 0.0166109 0.417726
155 1 0.937974 0.1489 0.310977
266 1 0.851595 0.102628 0.393357
263 1 0.751022 0.170903 0.422983
259 1 0.248937 0.441577 0.30781
347 2 0.112464 0.494557 0.295413
302 2 0.236266 0.323244 0.320446
116 1 0.121147 0.364221 0.380354
141 1 0.19897 0.437216 0.469172
58 1 0.424039 0.304895 0.451742
119 1 0.404352 0.407679 0.335754
118 1 0.278345 0.301842 0.461187
38 1 0.345094 0.43361 0.453338
214 1 0.680092 0.26776 0.406041
295 2 0.650622 0.254344 0.290278
103 1 0.715249 0.436892 0.326587
233 1 0.613639 0.370649 0.274899
72 1 0.736104 0.492599 0.465841
230 1 0.597177 0.437151 0.499327
339 2 0.985566 0.269763 0.429852
255 1 0.858192 0.285085 0.368765
326 2 0.963777 0.250813 0.30698
51 1 0.862227 0.424416 0.367392
210 1 0.988669 0.426517 0.351306
350 2 0.965474 0.494392 0.41891
243 1 0.768298 0.334892 0.476755
187 1 0.0397579 0.696396 0.381612
264 1 0.111835 0.532072 0.41251
304 2 0.0519491 0.615689 0.260907
262 1 0.164609 0.747066 0.304785
343 2 0.155437 0.639317 0.406195
234 1 0.210647 0.574029 0.315149
77 1 0.0340932 0.647516 0.486541
238 1 0.391208 0.674293 0.373926
185 1 0.343575 0.538427 0.370593
47 1 0.461172 0.559553 0.455081
261 1 0.266352 0.696077 0.39322
324 2 0.487348 0.536615 0.320859
313 2 0.507406 0.700467 0.435444
35 1 0.605357 0.532543 0.354012
182 1 0.601187 0.622876 0.470216
198 1 0.651565 0.718117 0.37911
169 1 0.53063 0.677563 0.331783
26 1 0.912334 0.60838 0.432742
75 1 0.829291 0.526057 0.259854
81 1 0.87377 0.74392 0.371697
301 2 0.773298 0.64016 0.345771
105 1 0.937882 0.594656 0.302851
244 1 0.784498 0.626956 0.463331
222 1 0.229541 0.954175 0.272147
228 1 0.164517 0.847437 0.435033
52 1 0.0534771 0.802968 0.482452
140 1 0.226984 0.976042 0.431749
121 1 0.0832546 0.940929 0.308105
200 1 0.0171037 0.781831 0.264169
284 1 0.33479 0.809293 0.286582
63 1 0.485115 0.821843 0.256987
157 1 0.442025 0.797651 0.420566
241 1 0.410836 0.942722 0.275262
275 1 0.582716 0.779157 0.483625
30 1 0.656387 0.980277 0.318955
258 1 0.725051 0.832394 0.381135
46 1 0.561548 0.883745 0.374113
54 1 0.701335 0.934795 0.475357
342 2 0.994934 0.939676 0.41888
87 1 0.853547 0.911785 0.427239
112 1 0.927734 0.927152 0.299169
61 1 0.887516 0.81316 0.251385
314 2 0.00733025 0.0328749 0.604541
49 1 0.145133 0.169599 0.691851
310 2 0.0496549 0.0935928 0.70959
330 2 0.205283 0.101353 0.629535
196 1 0.143042 0.0224365 0.717732
325 2 0.0987378 0.0398867 0.507728
331 2 0.0498366 0.135968 0.587924
5 1 0.292009 0.0231262 0.655767
135 1 0.475598 0.0899777 0.666645
223 1 0.398242 0.193858 0.625714
216 1 0.435353 0.0273533 0.521565
56 1 0.269764 0.14272 0.543135
237 1 0.597369 0.15681 0.657118
291 2 0.502258 0.150703 0.562699
128 1 0.746222 0.126574 0.671574
149 1 0.657814 0.155311 0.526021
174 1 0.775963 0.0314115 0.563571
176 1 0.922794 0.182598 0.536427
60 1 0.981803 0.184471 0.658058
252 1 0.152737 0.301882 0.537808
96 1 0.0481491 0.396671 0.523799
257 1 0.0727423 0.367396 0.693606
193 1 0.256109 0.256872 0.629323
29 1 0.414385 0.336621 0.666765
305 2 0.309454 0.378386 0.536879
50 1 0.277243 0.38593 0.686592
290 2 0.446274 0.371444 0.543794
270 1 0.435354 0.472599 0.561428
286 1 0.676341 0.368075 0.622415
109 1 0.677278 0.493902 0.592319
154 1 0.653522 0.310721 0.742301
299 2 0.714044 0.270754 0.63316
242 1 0.539182 0.380317 0.611108
320 2 0.723556 0.430992 0.693195
114 1 0.593022 0.286994 0.510955
359 2 0.977654 0.458938 0.67492
36 1 0.824873 0.303217 0.606485
42 1 0.785788 0.312017 0.734574
179 1 0.92572 0.338224 0.700962
298 2 0.843976 0.415448 0.70387
111 1 0.921667 0.331813 0.525025
260 1 0.887469 0.475586 0.503009
220 1 0.211047 0.605851 0.526054
201 1 0.065536 0.709957 0.626293
336 2 0.204917 0.67346 0.671301
289 2 0.0564862 0.601873 0.727532
68 1 0.0744502 0.508823 0.604839
312 2 0.236712 0.722503 0.501156
186 1 0.298464 0.621925 0.635923
256 1 0.29043 0.510621 0.566718
91 1 0.34747 0.676154 0.537532
224 1 0.463986 0.523603 0.743349
184 1 0.451258 0.747623 0.684329
344 2 0.279133 0.619271 0.742847
215 1 0.555886 0.546034 0.65282
303 2 0.623044 0.74796 0.585957
221 1 0.718202 0.60653 0.749392
126 1 0.655101 0.644596 0.584213
276 1 0.502062 0.679911 0.566807
132 1 0.906077 0.699371 0.544519
39 1 0.836628 0.518974 0.682002
292 2 0.786518 0.539863 0.57902
199 1 0.892866 0.715217 0.673907
268 1 0.782835 0.650341 0.598553
217 1 0.936179 0.567802 0.604063
282 1 0.197284 0.77301 0.742252
285 1 0.088275 0.838381 0.723059
98 1 0.161606 0.909109 0.631252
71 1 0.203804 0.760055 0.594688
19 1 0.0463831 0.933354 0.512575
322 2 0.221885 0.938675 0.540284
188 1 0.28136 0.86051 0.623175
165 1 0.340185 0.906993 0.514095
351 2 0.423792 0.950199 0.596538
309 2 0.296434 0.772886 0.717012
48 1 0.439122 0.820458 0.569757
345 2 0.546057 0.993193 0.562643
205 1 0.564117 0.895768 0.534773
40 1 0.745228 0.76629 0.731687
136 1 0.695818 0.834587 0.567944
183 1 0.631575 0.982725 0.667687
232 1 0.52863 0.869055 0.691266
152 1 0.61451 0.784492 0.724455
271 1 0.836706 0.901976 0.592936
189 1 0.797947 0.992572 0.69071
150 1 0.982003 0.959764 0.691618
27 1 0.809996 0.796574 0.515682
64 1 0.924355 0.995318 0.509648
107 1 0.880543 0.821005 0.741143
33 1 0.960796 0.822011 0.59416
102 1 0.0244521 0.209951 0.831382
99 1 0.00441304 0.14886 0.963579
83 1 0.129839 0.133835 0.888866
296 2 0.191701 0.0790668 0.993165
100 1 0.0440356 0.0386842 0.922799
151 1 0.271983 0.159551 0.757966
203 1 0.414614 0.140879 0.753961
334 2 0.469668 0.238188 0.904466
173 1 0.40257 0.0340347 0.851628
32 1 0.309842 0.149949 0.922906
69 1 0.250612 0.0555393 0.858926
204 1 0.681182 0.189135 0.983341
277 1 0.559526 0.21532 0.773693
195 1 0.552495 0.160962 0.953179
163 1 0.520123 0.0928609 0.813755
92 1 0.670885 0.01511 0.912932
321 2 0.524541 0.0375527 0.915922
288 1 0.637661 0.11142 0.786217
354 2 0.91902 0.195353 0.917513
66 1 0.83213 0.230455 0.987447
59 1 0.866938 0.0413345 0.924991
137 1 0.926519 0.0589863 0.765108
190 1 0.85559 0.175891 0.819235
90 1 0.0372371 0.49104 0.775632
311 2 0.218763 0.487169 0.843044
335 2 0.222656 0.295071 0.950247
131 1 0.053354 0.3376 0.826933
178 1 0.11799 0.273004 0.919103
177 1 0.164056 0.270967 0.781311
148 1 0.0998069 0.474605 0.93386
333 2 0.298334 0.26621 0.758539
206 1 0.414229 0.289748 0.794121
44 1 0.253503 0.433824 0.938681
245 1 0.258496 0.370271 0.814599
74 1 0.327493 0.273646 0.89332
43 1 0.326135 0.468434 0.772174
219 1 0.409291 0.441265 0.914966
273 1 0.332373 0.365576 0.999601
349 2 0.503364 0.358357 0.85931
23 1 0.628572 0.46045 0.776381
294 2 0.694262 0.379301 0.817184
16 1 0.626833 0.44684 0.902547
117 1 0.6058 0.27374 0.92339
153 1 0.533356 0.355514 0.756687
70 1 0.909851 0.29731 0.82312
308 2 0.982553 0.250986 0.992559
18 1 0.765751 0.363902 0.921941
158 1 0.901833 0.468777 0.853022
130 1 0.996107 0.368238 0.944577
180 1 0.761978 0.46661 0.820388
3 1 0.802177 0.496687 0.952669
306 2 0.0130739 0.690579 0.916245
207 1 0.0976214 0.606068 0.847866
125 1 0.0625607 0.726979 0.813137
278 1 0.156508 0.726615 0.915434
168 1 0.257383 0.680911 0.832578
279 1 0.412496 0.582924 0.919034
281 1 0.271654 0.565253 0.910094
226 1 0.287405 0.69566 0.966758
159 1 0.430837 0.671976 0.805347
146 1 0.569228 0.729036 0.869591
360 2 0.675458 0.54801 0.972561
115 1 0.539362 0.576525 0.931201
227 1 0.574049 0.582045 0.803978
297 2 0.659263 0.707831 0.78752
55 1 0.616726 0.707036 0.99719
110 1 0.954976 0.5872 0.785953
318 2 0.957607 0.507306 0.942525
65 1 0.753045 0.607588 0.882725
341 2 0.897594 0.600957 0.883504
253 1 0.841508 0.666477 0.799045
13 1 0.177831 0.974489 0.939728
86 1 0.0154395 0.97164 0.814431
41 1 0.143654 0.859665 0.847127
170 1 0.0558673 0.933554 0.999003
249 1 0.362218 0.772415 0.865206
147 1 0.264796 0.947712 0.778026
229 1 0.409634 0.885666 0.766425
293 2 0.458743 0.942208 0.869768
85 1 0.47999 0.804677 0.955348
246 1 0.300811 0.940058 0.957013
323 2 0.33105 0.810886 0.978652
239 1 0.627672 0.875863 0.855315
209 1 0.709177 0.838584 0.976836
211 1 0.722309 0.949928 0.802634
20 1 0.546637 0.917944 0.942079
329 2 0.503522 0.810644 0.846524
175 1 0.573645 0.976023 0.783821
73 1 0.868446 0.934557 0.784751
120 1 0.975723 0.796058 0.922019
355 2 0.918989 0.752397 0.823109
166 1 0.781271 0.821176 0.858053
358 2 0.768048 0.956823 0.912559
9 1 0.823728 0.762688 0.977093
11 1 0.865048 0.889077 0.952322
