ITEM: TIMESTEP
0
ITEM: NUMBER OF ATOMS
360
ITEM: BOX BOUNDS pp pp pp
0.0000000000000000e+00 6.6943295008216896e+00
0.0000000000000000e+00 6.6943295008216896e+00
0.0000000000000000e+00 6.6943295008216896e+00
ITEM: ATOMS id type xs ys zs
48 1 0.136641 0.0623721 0.0489245
154 1 0.0784366 0.199154 0.0559578
112 1 0.129312 0.16345 0.193864
360 2 0.237981 0.0746467 0.239692
172 1 0.273899 0.134335 0.132488
203 1 0.385013 0.196832 0.217837
220 1 0.41924 0.0883548 0.0705109
120 1 0.365122 0.0401977 0.222208
233 1 0.523156 0.127434 0.165195
310 2 0.607376 0.185597 0.0908234
287 1 0.683831 0.102164 0.148774
148 1 0.638043 0.234749 0.202194
47 1 0.505032 0.214928 0.00737844
130 1 0.71687 0.0109824 0.00459376
30 1 0.753151 0.19717 0.0431359
28 1 0.993998 0.0987128 0.124343
15 1 0.844845 0.0719512 0.0711575
137 1 0.863598 0.0801783 0.222654
59 1 0.902723 0.225019 0.061599
2 1 0.79711 0.225385 0.197179
332 2 0.109572 0.29522 0.134055
52 1 0.236477 0.280605 0.167283
79 1 0.13524 0.418439 0.168556
277 1 0.108477 0.367856 0.0185391
282 1 0.199174 0.499078 0.0333285
268 1 0.368503 0.273238 0.0627821
284 1 0.301458 0.426226 0.140994
23 1 0.452107 0.434697 0.157911
309 2 0.384095 0.323618 0.177989
245 1 0.426624 0.451173 0.0132102
78 1 0.25492 0.351569 0.0100607
25 1 0.512169 0.293387 0.137166
329 2 0.516218 0.370728 0.0261631
219 1 0.628591 0.403394 0.116244
355 2 0.572863 0.371874 0.222619
24 1 0.567404 0.498427 0.217166
343 2 0.719283 0.301985 0.125111
198 1 0.738073 0.486271 0.0294381
264 1 0.714988 0.359981 0.239957
50 1 0.643451 0.288466 0.0180707
122 1 0.806725 0.35254 0.0370053
146 1 0.86639 0.376963 0.182151
105 1 0.958172 0.369736 0.0528003
56 1 0.991515 0.267795 0.179112
319 2 0.993972 0.467274 0.135556
167 1 0.137251 0.638967 0.0550496
337 2 0.163475 0.543981 0.147387
271 1 0.155296 0.665559 0.216323
291 2 0.0161816 0.690698 0.229329
104 1 0.0524636 0.552364 0.217499
44 1 0.0471615 0.743068 0.12782
228 1 0.24702 0.528154 0.245009
55 1 0.0497148 0.516364 0.0243607
199 1 0.237291 0.745131 0.0250818
166 1 0.387729 0.719363 0.0553643
49 1 0.326767 0.570334 0.0770736
222 1 0.479071 0.596386 0.097154
180 1 0.301408 0.679757 0.182992
196 1 0.455494 0.713537 0.211311
72 1 0.395389 0.56677 0.240243
162 1 0.625872 0.568795 0.100859
169 1 0.734506 0.505958 0.185834
197 1 0.584708 0.718976 0.0797226
209 1 0.622822 0.675508 0.21764
102 1 0.745512 0.640792 0.0592527
242 1 0.835892 0.645493 0.174892
229 1 0.863041 0.744464 0.054015
63 1 0.872145 0.505304 0.101056
147 1 0.968885 0.624306 0.116265
356 2 0.886222 0.524844 0.236061
325 2 0.911794 0.586989 0.00986857
194 1 0.0461441 0.917952 0.116865
171 1 0.175234 0.836156 0.143401
12 1 0.16696 0.993634 0.183094
303 2 0.153931 0.935105 0.0422452
320 2 0.418316 0.966023 0.124789
208 1 0.289476 0.963107 0.0996702
236 1 0.335009 0.821099 0.166629
299 2 0.275009 0.925007 0.222742
202 1 0.477668 0.840725 0.09874
293 2 0.333247 0.831332 0.0360005
190 1 0.513835 0.983636 0.228969
132 1 0.722646 0.769496 0.129932
262 1 0.643556 0.866749 0.0437018
135 1 0.550804 0.987256 0.0793257
42 1 0.659411 0.955559 0.177387
251 1 0.586372 0.834041 0.198817
311 2 0.929107 0.986625 0.0437192
22 1 0.81349 0.890429 0.0548522
295 2 0.775736 0.997839 0.151006
259 1 0.903548 0.943102 0.156721
215 1 0.909296 0.79506 0.191963
145 1 0.785625 0.853281 0.241983
113 1 0.961127 0.849695 0.016139
85 1 0.14493 0.208686 0.435388
16 1 0.14041 0.0780002 0.339967
150 1 0.249247 0.0920758 0.439361
134 1 0.245703 0.184176 0.309135
71 1 0.0111752 0.00446495 0.251686
156 1 0.118503 0.0144417 0.480859
318 2 0.48252 0.092543 0.27878
225 1 0.376723 0.116443 0.350153
204 1 0.485478 0.207012 0.367953
258 1 0.392231 0.00441386 0.456582
256 1 0.311569 0.241558 0.44186
313 2 0.526231 0.21998 0.251351
305 2 0.744258 0.135488 0.284548
161 1 0.615976 0.0942561 0.290113
255 1 0.641226 0.154704 0.429153
124 1 0.69572 0.00983813 0.449204
80 1 0.534195 0.059146 0.423156
129 1 0.746997 0.236989 0.357565
64 1 0.748517 0.00105902 0.302491
100 1 0.992945 0.157468 0.28474
274 1 0.998324 0.0744859 0.405482
267 1 0.994125 0.24718 0.41968
292 2 0.763693 0.185242 0.47718
69 1 0.84918 0.122368 0.365352
300 2 0.901322 0.187488 0.485433
53 1 0.0795728 0.371847 0.467723
6 1 0.118689 0.287923 0.284356
349 2 0.203522 0.40425 0.273378
65 1 0.224019 0.353018 0.390608
252 1 0.115789 0.482344 0.342073
153 1 0.000913884 0.40325 0.26064
298 2 0.373872 0.252365 0.333834
36 1 0.323974 0.374834 0.274315
66 1 0.461943 0.328338 0.290905
54 1 0.380293 0.371639 0.412182
342 2 0.450177 0.46269 0.287003
45 1 0.254645 0.494739 0.403409
232 1 0.600826 0.284572 0.338963
75 1 0.530048 0.429828 0.374146
73 1 0.693338 0.369691 0.41971
350 2 0.598722 0.418474 0.481942
227 1 0.677417 0.484353 0.329963
340 2 0.736508 0.492176 0.442764
118 1 0.515235 0.306224 0.482042
213 1 0.842278 0.298767 0.453078
83 1 0.947929 0.422197 0.398092
81 1 0.8892 0.279616 0.303902
178 1 0.822448 0.440175 0.330812
138 1 0.0445175 0.522297 0.468962
275 1 0.0873535 0.6381 0.375763
224 1 0.494954 0.747272 0.489718
286 1 0.250921 0.65292 0.336593
18 1 0.40382 0.539803 0.397186
103 1 0.398463 0.69436 0.36646
322 2 0.546528 0.652075 0.431996
182 1 0.52149 0.59342 0.323311
358 2 0.715126 0.592003 0.270354
187 1 0.674645 0.676916 0.41485
8 1 0.611377 0.536218 0.458275
125 1 0.800303 0.58885 0.385841
354 2 0.792781 0.733106 0.413659
108 1 0.919431 0.730801 0.332357
273 1 0.950942 0.564777 0.346628
119 1 0.771358 0.71466 0.293095
235 1 0.884554 0.658469 0.485414
316 2 0.119887 0.875485 0.499864
230 1 0.0403707 0.792034 0.413144
96 1 0.0872672 0.802149 0.26826
89 1 0.190811 0.762133 0.446249
90 1 0.142797 0.90061 0.372607
278 1 0.242175 0.810162 0.292082
324 2 0.358371 0.756646 0.267751
93 1 0.430803 0.857364 0.276731
139 1 0.277269 0.979801 0.327624
191 1 0.343796 0.827878 0.417195
333 2 0.429833 0.972499 0.33416
265 1 0.493658 0.884283 0.416193
206 1 0.253094 0.944359 0.498329
217 1 0.630128 0.842573 0.479394
289 2 0.675606 0.79515 0.308778
173 1 0.549667 0.759439 0.344101
38 1 0.615082 0.935188 0.343015
170 1 0.760985 0.847292 0.394409
164 1 0.884201 0.8113 0.481335
276 1 0.996767 0.931212 0.45474
110 1 0.938534 0.878908 0.319244
345 2 0.894953 0.99282 0.310948
29 1 0.851583 0.959503 0.425715
9 1 0.194862 0.143753 0.582593
106 1 0.0884015 0.0429552 0.666615
58 1 0.0367707 0.149074 0.528487
341 2 0.20682 0.0207175 0.596149
238 1 0.0794246 0.229759 0.649549
214 1 0.239589 0.0258795 0.729323
351 2 0.281323 0.149326 0.686548
240 1 0.434303 0.150433 0.686047
184 1 0.327887 0.0775457 0.584511
31 1 0.341981 0.23522 0.60735
216 1 0.471749 0.00585812 0.586469
317 2 0.378674 0.0168695 0.714311
144 1 0.439861 0.148149 0.509311
210 1 0.549985 0.198599 0.590811
40 1 0.587818 0.0966504 0.686631
254 1 0.704713 0.110487 0.57421
226 1 0.683936 0.231353 0.703408
315 2 0.56871 0.0817512 0.542312
131 1 0.938148 0.0897095 0.643088
201 1 0.803477 0.0185422 0.653281
237 1 0.823082 0.196724 0.614572
326 2 0.976655 0.0401643 0.524196
306 2 0.930976 0.213598 0.678392
17 1 0.849557 0.0759618 0.511502
314 2 0.0755678 0.261452 0.53
257 1 0.0760343 0.374018 0.625309
115 1 0.216817 0.289599 0.688944
239 1 0.195563 0.299558 0.544471
127 1 0.211456 0.453682 0.672569
10 1 0.183092 0.453162 0.534149
263 1 0.362028 0.384493 0.631554
290 2 0.465342 0.277622 0.649676
116 1 0.464395 0.440588 0.516141
328 2 0.395267 0.304961 0.510684
334 2 0.314284 0.420135 0.500663
74 1 0.572029 0.36685 0.608667
339 2 0.697569 0.373145 0.666794
7 1 0.70361 0.445375 0.563645
211 1 0.690729 0.264491 0.546629
321 2 0.976681 0.418442 0.528521
280 1 0.942917 0.470037 0.65583
272 1 0.954796 0.285402 0.567202
243 1 0.826321 0.346001 0.616815
62 1 0.958594 0.326525 0.726556
99 1 0.852873 0.494842 0.525283
234 1 0.0902794 0.532618 0.615147
177 1 0.238024 0.606437 0.651416
107 1 0.025269 0.658601 0.533904
174 1 0.160857 0.724607 0.595427
221 1 0.121048 0.643096 0.741301
163 1 0.186233 0.602988 0.500569
353 2 0.324564 0.514797 0.689656
285 1 0.31456 0.527734 0.549439
70 1 0.394368 0.622667 0.665655
91 1 0.473812 0.601953 0.523096
76 1 0.474884 0.742223 0.648811
128 1 0.340096 0.679535 0.510939
149 1 0.506207 0.508223 0.662041
5 1 0.674175 0.521204 0.703554
26 1 0.742917 0.609232 0.537645
249 1 0.565086 0.646608 0.713577
35 1 0.605754 0.676652 0.568214
3 1 0.730203 0.680654 0.675743
302 2 0.783875 0.502898 0.641332
37 1 0.969353 0.742035 0.67634
248 1 0.860792 0.59744 0.642337
82 1 0.978011 0.599347 0.736732
347 2 0.957768 0.566932 0.568174
338 2 0.862279 0.713591 0.604285
179 1 0.130395 0.794559 0.730461
269 1 0.165042 0.894005 0.618693
352 2 0.0480488 0.944787 0.581406
168 1 0.0163238 0.900844 0.713512
123 1 0.0321044 0.820932 0.558227
193 1 0.30929 0.752683 0.659437
126 1 0.411373 0.870361 0.550191
92 1 0.309614 0.909035 0.675595
296 2 0.269783 0.817911 0.519989
143 1 0.486132 0.892615 0.692523
181 1 0.741398 0.761037 0.543083
101 1 0.636144 0.968147 0.610647
312 2 0.535356 0.861 0.583662
1 1 0.624279 0.818313 0.647794
357 2 0.728726 0.905148 0.678251
348 2 0.58248 0.954277 0.503005
60 1 0.923555 0.942258 0.588711
140 1 0.769668 0.919141 0.55525
359 2 0.912292 0.976418 0.727843
142 1 0.818879 0.819092 0.651435
176 1 0.16533 0.157243 0.775866
205 1 0.0944538 0.143169 0.912517
43 1 0.0246972 0.0327371 0.809307
34 1 0.170157 0.0179832 0.86802
344 2 0.235846 0.146227 0.885411
61 1 0.222753 0.204696 0.997362
165 1 0.301117 0.0616058 0.974057
151 1 0.366738 0.201887 0.92285
136 1 0.347776 0.0923161 0.816571
97 1 0.466749 0.0770112 0.930365
323 2 0.448901 0.189422 0.830243
121 1 0.487019 0.0262152 0.780023
98 1 0.534651 0.243828 0.756443
183 1 0.601575 0.131367 0.833207
87 1 0.723293 0.0712646 0.760851
270 1 0.630228 0.124777 0.986618
84 1 0.813888 0.208876 0.76552
155 1 0.775034 0.122559 0.912532
185 1 0.996618 0.188725 0.785151
188 1 0.943267 0.122953 0.94262
200 1 0.882415 0.0732927 0.805864
297 2 0.766141 0.00906309 0.861327
189 1 0.238044 0.2749 0.856475
308 2 0.129993 0.285877 0.928807
247 1 0.162835 0.424157 0.888187
218 1 0.102695 0.32089 0.795612
133 1 0.0766209 0.483443 0.759712
281 1 0.0109763 0.418738 0.881412
186 1 0.370022 0.269852 0.769463
175 1 0.304006 0.407576 0.77742
327 2 0.471624 0.461373 0.885587
253 1 0.375727 0.356319 0.912511
57 1 0.456003 0.402447 0.763272
159 1 0.310679 0.495613 0.92292
158 1 0.679885 0.27948 0.867127
223 1 0.524052 0.328855 0.899424
160 1 0.611933 0.379276 0.75872
279 1 0.588577 0.462504 0.958513
331 2 0.688749 0.38395 0.954365
117 1 0.698139 0.473307 0.858766
109 1 0.999992 0.273379 0.951843
111 1 0.843683 0.272922 0.916476
266 1 0.768935 0.355234 0.773532
260 1 0.850143 0.462152 0.918327
304 2 0.889207 0.412023 0.776564
77 1 0.0937866 0.592267 0.89118
231 1 0.1711 0.735757 0.883252
261 1 0.224657 0.540188 0.795826
307 2 0.218785 0.605123 0.9611
21 1 0.0130653 0.74431 0.838884
20 1 0.43003 0.70368 0.807636
4 1 0.398091 0.550558 0.810243
94 1 0.484018 0.582811 0.936904
95 1 0.275574 0.682115 0.780764
86 1 0.336051 0.649412 0.929191
51 1 0.501275 0.742754 0.937925
336 2 0.568498 0.651961 0.853389
32 1 0.689399 0.640059 0.809479
27 1 0.549425 0.524495 0.811387
19 1 0.631995 0.607477 0.951668
212 1 0.856639 0.68711 0.775512
244 1 0.798823 0.625868 0.924829
67 1 0.823045 0.513519 0.775575
11 1 0.947042 0.570949 0.884933
13 1 0.996921 0.683809 0.982551
294 2 0.12469 0.956498 0.760525
246 1 0.104652 0.824097 0.991238
250 1 0.045962 0.977233 0.96136
192 1 0.0982927 0.879975 0.85118
288 1 0.242278 0.893214 0.96266
207 1 0.246676 0.843563 0.803372
195 1 0.415639 0.928358 0.992455
335 2 0.363377 0.80522 0.762916
46 1 0.347884 0.946529 0.839427
88 1 0.347868 0.807223 0.90175
241 1 0.48995 0.876876 0.854176
346 2 0.534137 0.873768 0.978451
68 1 0.574716 0.781612 0.789591
14 1 0.641448 0.936612 0.766428
283 1 0.586332 0.978487 0.910955
33 1 0.725587 0.881856 0.911363
41 1 0.735387 0.795185 0.792785
114 1 0.657273 0.757384 0.923926
330 2 0.74715 0.786769 0.997026
157 1 0.810139 0.925862 0.783679
39 1 0.866019 0.975852 0.934089
301 2 0.874857 0.813814 0.768643
141 1 0.951808 0.87831 0.861138
152 1 0.847173 0.781787 0.903253
ITEM: TIMESTEP
100000
ITEM: NUMBER OF ATOMS
360
ITEM: BOX BOUNDS pp pp pp
0.0000000000000000e+00 6.6943295008216896e+00
0.0000000000000000e+00 6.6943295008216896e+00
0.0000000000000000e+00 6.6943295008216896e+00
ITEM: ATOMS id type xs ys zs
343 2 0.112023 0.121281 0.154279
189 1 0.177954 0.0832309 0.0232842
48 1 0.0475056 0.022948 0.100828
203 1 0.234633 0.0761218 0.169002
65 1 0.190535 0.226627 0.176874
52 1 0.996023 0.150521 0.218533
55 1 0.10742 0.229776 0.0517115
309 2 0.290321 0.997709 0.0806501
318 2 0.376173 0.0530077 0.210805
47 1 0.366281 0.107852 0.0823148
360 2 0.309053 0.189868 0.170339
78 1 0.26512 0.229608 0.0364004
120 1 0.431661 0.171656 0.221135
12 1 0.507984 0.0428376 0.178487
287 1 0.653141 0.042196 0.124217
30 1 0.517946 0.149243 0.058929
154 1 0.698817 0.20408 0.104984
161 1 0.599453 0.1655 0.216308
308 2 0.720302 0.107375 0.211626
354 2 0.928125 0.0614951 0.155329
100 1 0.812634 0.0780737 0.109064
205 1 0.955426 0.183623 0.071559
330 2 0.627496 0.948731 0.0143046
327 2 0.170755 0.338991 0.0812379
167 1 0.217427 0.455345 0.0419615
56 1 0.100557 0.42462 0.144514
349 2 0.186616 0.347134 0.239117
49 1 0.226988 0.48955 0.214657
61 1 0.0650473 0.29654 0.234694
23 1 0.397464 0.254319 0.101324
284 1 0.283137 0.362143 0.138369
182 1 0.43919 0.406767 0.0991045
148 1 0.47043 0.34016 0.243029
222 1 0.342689 0.526359 0.0822924
25 1 0.551885 0.29626 0.108932
146 1 0.688088 0.479103 0.0894257
169 1 0.696658 0.334591 0.185479
355 2 0.591898 0.379354 0.219497
162 1 0.689835 0.477409 0.250544
24 1 0.551963 0.483554 0.180582
11 1 1.00483 0.466051 0.0177258
112 1 0.845113 0.222217 0.171616
247 1 0.964641 0.33116 0.110529
277 1 0.827992 0.40868 0.176666
59 1 0.805396 0.310773 0.0443115
164 1 0.94529 0.901197 0.438355
113 1 0.105759 0.570012 0.0838903
282 1 0.175162 0.657565 0.189562
13 1 0.0155395 0.65583 0.191076
246 1 0.152478 0.72385 0.0463053
337 2 0.0814738 0.543548 0.215186
353 2 0.226757 0.570393 0.10613
338 2 0.0290605 0.721847 0.0781712
29 1 0.95942 0.00418813 0.266176
350 2 0.430478 0.548726 0.177756
271 1 0.320766 0.68097 0.0704701
286 1 0.329145 0.615451 0.212915
66 1 0.496613 0.653197 0.153619
19 1 0.489553 0.549347 0.0350345
197 1 0.663422 0.61123 0.158066
85 1 0.111069 0.206412 0.478412
291 2 0.208113 0.613681 0.447146
125 1 0.952588 0.509026 0.157928
358 2 0.908425 0.605547 0.237681
215 1 0.888487 0.636589 0.0829408
108 1 0.806791 0.561646 0.184124
102 1 0.746338 0.725632 0.0536572
259 1 0.0140767 0.874522 0.0525919
250 1 0.0972042 0.801134 0.165864
44 1 0.171399 0.931114 0.0935099
150 1 0.114758 0.969643 0.225733
303 2 0.995019 0.909792 0.182851
180 1 0.274473 0.770446 0.217641
171 1 0.283151 0.934577 0.199466
103 1 0.43848 0.792913 0.147656
196 1 0.403176 0.953102 0.10945
199 1 0.288179 0.829541 0.072349
333 2 0.38649 0.879586 0.232069
270 1 0.518226 0.00293037 0.0187308
39 1 0.930168 0.0422802 0.000591805
42 1 0.765501 0.918733 0.383578
262 1 0.624562 0.746008 0.147593
220 1 0.571723 0.899666 0.141394
15 1 0.711522 0.885827 0.101338
132 1 0.696456 0.829335 0.269007
137 1 0.748317 0.962636 0.234229
235 1 0.936003 0.791379 0.157375
28 1 0.880404 0.942765 0.121515
289 2 0.801139 0.834056 0.167285
22 1 0.858176 0.819503 0.0261914
36 1 0.11919 0.107637 0.284891
326 2 0.0598518 0.210578 0.341567
298 2 0.132316 0.102696 0.419274
184 1 0.249111 0.144657 0.4512
90 1 0.227459 -0.00753887 0.336548
204 1 0.30995 0.124617 0.294394
324 2 0.452324 0.0190828 0.434681
144 1 0.399903 0.136534 0.442674
225 1 0.428733 0.976857 0.318661
295 2 0.395804 0.215035 0.34724
16 1 0.32927 1.01266 0.450763
202 1 0.510967 0.107252 0.347546
299 2 0.549622 0.23724 0.319276
190 1 0.706554 0.073174 0.355172
254 1 0.633329 0.198324 0.407222
135 1 0.602652 0.989535 0.267221
251 1 0.861205 0.863673 0.27948
64 1 0.73314 0.222575 0.288887
156 1 0.968965 0.118756 0.381492
69 1 0.838921 0.0334409 0.461248
2 1 0.841527 0.0997049 0.277951
274 1 0.826979 0.188865 0.406366
332 2 0.98554 0.236004 0.458028
305 2 0.877451 0.984106 0.351535
6 1 0.191551 0.246707 0.344383
79 1 0.101429 0.442075 0.298075
153 1 0.051223 0.326941 0.387214
311 2 0.131429 0.474637 0.414792
53 1 0.168809 0.362031 0.481359
228 1 0.241102 0.417381 0.356001
72 1 0.369799 0.447578 0.225855
334 2 0.341548 0.433479 0.486492
256 1 0.329622 0.290282 0.267658
10 1 0.330656 0.294276 0.448788
54 1 0.414344 0.396287 0.38855
255 1 0.489901 0.263146 0.42563
129 1 0.725666 0.309072 0.465468
264 1 0.635593 0.341239 0.340731
232 1 0.558512 0.469231 0.336429
75 1 0.710945 0.493357 0.405188
226 1 0.586488 0.405476 0.478039
81 1 0.926571 0.253355 0.301157
7 1 0.85253 0.488984 0.484183
147 1 1.01349 0.461982 0.449987
178 1 0.790533 0.373208 0.328376
273 1 0.93588 0.412008 0.319103
73 1 0.886644 0.323411 0.435585
348 2 0.63882 0.876722 0.384077
275 1 0.0758502 0.597569 0.457034
230 1 0.174669 0.582142 0.325431
96 1 0.0849485 0.70888 0.328025
138 1 1.00749 0.76496 0.464471
128 1 0.320492 0.778382 0.488519
104 1 1.00173 0.550656 0.322107
276 1 0.15967 0.731311 0.476018
89 1 0.261968 0.709013 0.367171
227 1 0.429639 0.688039 0.431969
45 1 0.311453 0.545497 0.372608
18 1 0.465411 0.580051 0.299427
8 1 0.460935 0.524152 0.458163
191 1 0.412969 0.731419 0.293342
93 1 0.584279 0.706095 0.298486
322 2 0.601545 0.584776 0.260972
209 1 0.716678 0.621347 0.310776
187 1 0.604263 0.614664 0.433649
35 1 0.761256 0.625012 0.478326
170 1 0.705544 0.745803 0.398887
217 1 0.851833 0.794056 0.420478
119 1 0.802598 0.722502 0.223807
99 1 0.846865 0.541963 0.336804
145 1 0.92567 0.713691 0.309389
340 2 0.824153 0.661399 0.376462
83 1 0.927489 0.627751 0.453443
316 2 0.99855 0.0344153 0.482039
123 1 0.0227432 0.862127 0.299347
269 1 0.0731706 0.986383 0.387896
347 2 0.0925626 0.839906 0.413865
110 1 0.180514 0.84337 0.313119
206 1 0.220303 0.887455 0.452314
173 1 0.555392 0.797997 0.472648
278 1 0.326679 0.85436 0.341098
51 1 0.626403 0.801457 0.0037044
195 1 0.528034 0.850087 0.28257
80 1 0.554002 0.958549 0.415131
166 1 0.459641 0.719008 0.00228406
293 2 0.509516 0.856481 0.0397683
63 1 0.847421 0.479536 0.0400243
114 1 0.609538 0.652345 0.0102898
124 1 0.684912 0.0180964 0.502053
139 1 0.537104 0.113899 0.495902
265 1 0.438117 0.895336 0.487054
106 1 0.180528 0.170618 0.631929
60 1 0.0703173 0.0740625 0.574207
198 1 0.575768 0.43177 0.99371
288 1 0.19488 0.00838836 0.663459
185 1 0.0823371 0.0885911 0.74141
131 1 0.0125988 0.210377 0.672528
357 2 0.735559 0.851423 0.972114
352 2 0.229803 0.251695 0.523703
9 1 0.341069 0.177457 0.573995
351 2 0.298619 0.0642416 0.56813
335 2 0.305141 0.0928397 0.707341
315 2 0.451193 0.217492 0.525417
216 1 0.423495 0.0458781 0.585321
92 1 0.350084 0.984518 0.700641
240 1 0.501488 0.169935 0.648447
143 1 0.518181 0.988602 0.72003
87 1 0.664116 0.224873 0.70482
40 1 0.631292 0.094341 0.620558
237 1 0.738528 0.168928 0.542732
331 2 0.64044 0.543145 0.942597
58 1 0.931754 0.149323 0.539637
17 1 0.830947 0.196853 0.667454
201 1 0.791084 0.0421192 0.616477
140 1 0.930232 0.0692936 0.722471
300 2 0.85548 0.248179 0.52709
272 1 0.140667 0.31455 0.618863
252 1 0.0945777 0.46278 0.581205
133 1 0.0246673 0.375346 0.707444
175 1 0.227523 0.481197 0.671118
323 2 0.260855 0.261112 0.666239
31 1 0.399416 0.253428 0.704073
257 1 0.298241 0.365658 0.588062
118 1 0.451391 0.36134 0.534373
239 1 0.407343 0.42168 0.710358
91 1 0.37529 0.508063 0.578477
116 1 0.521729 0.458607 0.617539
210 1 0.605069 0.242754 0.546608
98 1 0.537668 0.310062 0.685337
339 2 0.732551 0.288645 0.598229
111 1 0.663965 0.383777 0.618544
290 2 0.582651 0.432587 0.727294
292 2 0.737498 0.42367 0.518049
267 1 0.0012007 0.320057 0.55318
211 1 0.835798 0.359287 0.568652
243 1 0.946392 0.466548 0.597641
321 2 0.914338 0.305268 0.655512
266 1 0.78424 0.337826 0.717147
77 1 0.0337506 0.517775 0.717766
127 1 0.15964 0.612578 0.580376
280 1 1.00764 0.605415 0.590362
221 1 0.0981419 0.652967 0.726117
285 1 0.32038 0.611041 0.681475
149 1 0.470314 0.558093 0.741247
249 1 0.479831 0.618807 0.599534
177 1 0.315618 0.631085 0.507753
307 2 0.436504 0.688957 0.699723
27 1 0.56857 0.690836 0.723774
224 1 0.631156 0.68961 0.576132
74 1 0.659858 0.5389 0.561082
5 1 0.621295 0.547994 0.70286
346 2 0.690322 0.717964 0.748078
1 1 0.77762 0.654663 0.63241
336 2 0.762511 0.590013 0.734231
67 1 0.790819 0.499114 0.627972
302 2 0.97654 0.699984 0.684462
356 2 0.869565 0.590966 0.556767
82 1 0.898696 0.583579 0.696449
26 1 0.900352 0.723368 0.584918
234 1 0.0596925 0.774708 0.601473
174 1 0.247791 0.735389 0.610943
341 2 0.182313 0.846545 0.561876
207 1 0.0455372 0.947918 0.687694
107 1 0.0713604 0.915111 0.534791
126 1 0.192954 0.858023 0.694996
193 1 0.348839 0.815724 0.695124
258 1 0.305471 0.911315 0.579179
317 2 0.435187 0.906953 0.643514
88 1 0.491962 0.849164 0.746061
76 1 0.445568 0.767229 0.597138
68 1 0.584269 0.823993 0.624728
101 1 0.544371 0.957564 0.575026
14 1 0.677832 0.957235 0.67669
41 1 0.73819 0.811553 0.653266
312 2 0.78261 0.754391 0.520957
142 1 0.937252 0.981775 0.576857
37 1 0.947745 0.833332 0.698984
168 1 0.834903 0.932414 0.708301
181 1 0.835666 0.870726 0.55008
294 2 0.958196 0.845048 0.571413
345 2 0.0570176 0.109804 0.994178
176 1 0.143611 0.154133 0.890417
218 1 0.999957 0.213276 0.917187
43 1 1.00379 0.0679121 0.866859
238 1 0.106398 0.262394 0.782241
34 1 0.241767 0.0302799 0.818334
306 2 0.996126 0.183575 0.793936
219 1 0.351097 0.353358 0.988647
122 1 0.655563 0.296511 0.980323
136 1 0.249125 0.196623 0.775688
172 1 0.299885 0.126205 0.941936
214 1 0.418585 0.109126 0.76698
151 1 0.462571 0.125674 0.923025
329 2 0.580177 0.178448 0.95578
183 1 0.541479 0.226897 0.811902
241 1 0.615934 0.0781006 0.790834
105 1 0.688031 0.191884 0.879432
188 1 0.65587 0.0645155 0.957534
320 2 0.524441 0.0236199 0.892637
297 2 0.762858 0.0908707 0.883966
158 1 0.759822 0.0812198 0.748795
310 2 0.774442 0.219819 0.782128
84 1 0.867293 0.152815 0.847662
155 1 0.809612 0.164195 0.983853
32 1 0.559686 0.748409 0.875213
253 1 0.233641 0.300547 0.899706
245 1 0.0876862 0.347629 0.958083
159 1 0.113606 0.434303 0.821297
186 1 0.270953 0.462807 0.894849
304 2 0.0115874 0.356551 0.835635
283 1 0.858276 -0.00376671 0.865088
115 1 0.269851 0.355732 0.754204
263 1 0.387503 0.247228 0.853662
328 2 0.317259 0.478778 0.77982
314 2 0.363635 0.376616 0.856491
57 1 0.4801 0.359628 0.828042
279 1 0.431189 0.473238 0.917049
268 1 0.49331 0.286345 0.966728
141 1 0.833432 0.847854 0.862618
223 1 0.638826 0.346516 0.808374
50 1 0.726118 0.463239 0.778248
160 1 0.73491 0.437651 0.940753
117 1 0.573859 0.483904 0.8473
200 1 0.979417 0.905503 0.828606
213 1 0.881829 0.444852 0.743251
319 2 0.847454 0.438736 0.870774
109 1 0.926712 0.353283 0.95296
62 1 0.917268 0.294168 0.800011
260 1 0.777297 0.308246 0.870231
281 1 0.975475 0.485701 0.871692
86 1 0.116981 0.519789 0.941158
261 1 0.189773 0.560475 0.795163
296 2 0.0625662 0.579279 0.839577
231 1 0.131129 0.692091 0.880479
4 1 0.254895 0.595377 0.964877
95 1 0.237897 0.715525 0.768627
342 2 0.394386 0.606874 0.965097
70 1 0.33989 0.599773 0.838518
20 1 0.289077 0.75484 0.93456
94 1 0.499347 0.609775 0.879539
236 1 0.409634 0.731618 0.824748
179 1 -0.015174 0.790404 0.936584
301 2 0.940217 0.782141 0.81002
212 1 0.677192 0.596622 0.836109
359 2 0.915523 0.925957 0.980646
3 1 0.830891 0.737 0.749405
242 1 0.864381 0.704893 0.926983
244 1 0.848272 0.557411 0.836058
248 1 0.97142 0.665554 0.833019
208 1 0.175108 0.85482 0.95356
194 1 0.12882 0.93594 0.820191
192 1 0.0738501 0.790909 0.777416
165 1 0.0881848 0.977131 0.962154
71 1 0.271277 0.967163 0.959796
233 1 0.406758 0.875866 0.957065
121 1 0.424011 0.966175 0.844294
46 1 0.277495 0.855219 0.824633
33 1 0.704147 0.955062 0.857787
97 1 0.539405 0.898783 0.907062
157 1 0.657088 0.832543 0.794701
152 1 0.717859 0.727941 0.90042
38 1 0.688869 0.869488 0.508238
130 1 0.779703 0.974708 0.998218
21 1 0.0214386 0.623835 0.973927
325 2 0.914425 0.560414 0.985008
163 1 0.235726 0.498952 0.497661
229 1 0.763805 0.586229 0.980153
344 2 0.396288 0.0159113 0.964925
313 2 0.390404 0.203363 0.985322
134 1 0.185975 0.0205676 0.498586
ITEM: TIMESTEP
200000
ITEM: NUMBER OF ATOMS
360
ITEM: BOX BOUNDS pp pp pp
0.0000000000000000e+00 6.6943295008216896e+00
0.0000000000000000e+00 6.6943295008216896e+00
0.0000000000000000e+00 6.6943295008216896e+00
ITEM: ATOMS id type xs ys zs
48 1 0.0823883 0.0440635 0.229737
137 1 0.102559 0.123002 0.0854792
55 1 0.162 0.20411 0.202324
61 1 0.990992 0.227558 0.13045
189 1 0.227128 0.0603653 0.16699
172 1 0.105081 0.263346 0.0300406
173 1 0.588893 0.762843 0.488826
161 1 0.391047 0.143516 0.158987
47 1 0.391067 0.0219852 0.0537603
203 1 0.337743 0.993627 0.222336
65 1 0.305108 0.275475 0.174404
71 1 0.244554 0.182161 0.0672187
352 2 0.360217 0.1226 0.285036
120 1 0.560973 0.132293 0.126169
112 1 0.694349 0.0268936 0.100681
169 1 0.70959 0.165457 0.145542
308 2 0.608959 0.117698 0.261018
233 1 0.229007 0.0364913 0.0181335
353 2 0.493739 0.601417 0.0167187
52 1 0.756677 0.0325071 0.238961
150 1 0.953989 0.0823955 0.132444
360 2 0.803157 0.0878322 0.125367
153 1 0.855979 0.184436 0.214023
81 1 0.861813 0.185521 0.0638789
317 2 0.480639 0.0695888 0.488627
205 1 0.0870418 0.510066 0.159268
79 1 0.209009 0.401175 0.213158
218 1 0.174799 0.412527 0.0339636
349 2 0.153582 0.315665 0.137271
39 1 0.0315048 0.381746 0.0937121
325 2 0.208164 0.504717 0.124059
198 1 0.465851 0.31443 0.135138
284 1 0.335103 0.423764 0.0895811
146 1 0.512582 0.44511 0.0682441
56 1 0.317809 0.533299 0.223964
318 2 0.438922 0.455539 0.168884
314 2 0.276749 0.30469 0.0119233
25 1 0.559804 0.276174 0.0225033
162 1 0.619594 0.355158 0.14994
322 2 0.683004 0.510806 0.141412
247 1 0.716017 0.293139 0.0333385
59 1 0.690996 0.44752 0.0201314
182 1 0.569133 0.50506 0.205518
277 1 0.774545 0.414338 0.146753
125 1 0.900594 0.338329 0.19056
299 2 0.806472 0.273125 0.131414
155 1 0.87271 0.344435 0.0412177
63 1 0.917557 0.497339 0.117945
246 1 0.187962 0.620921 0.172622
113 1 0.0566625 0.657797 0.100646
332 2 0.141711 0.149422 0.488303
327 2 0.979714 0.288013 0.0187793
123 1 0.0964173 0.732577 0.259556
179 1 0.895358 0.832635 0.0367012
19 1 0.438641 0.578999 0.127456
333 2 0.310323 0.633069 0.0980034
286 1 0.341025 0.689315 0.225782
180 1 0.323642 0.772146 0.0885252
195 1 0.795157 0.929071 0.360338
262 1 0.491323 0.718223 0.0762886
197 1 0.60367 0.594985 0.076411
357 2 0.576392 0.643986 0.190257
225 1 0.684455 0.719062 0.147645
108 1 0.791377 0.601588 0.133197
83 1 0.824216 0.560577 0.491327
13 1 0.932039 0.623556 0.199872
305 2 0.895102 0.669253 0.0867418
152 1 0.791169 0.725574 0.0252934
209 1 0.839338 0.51982 0.259096
250 1 0.227204 0.778924 0.204331
259 1 0.145881 0.797981 0.0805234
192 1 0.103116 0.932196 0.122055
103 1 0.634864 0.902153 0.458177
36 1 0.19812 0.923386 0.253815
289 2 0.0181851 0.857236 0.0364387
293 2 0.446896 0.00617606 0.16426
271 1 0.268941 0.905437 0.104356
208 1 0.446077 0.885968 0.10718
309 2 0.366033 0.838049 0.203048
265 1 0.475969 0.920374 0.254115
166 1 0.461733 0.765198 0.239034
287 1 0.546374 0.982213 0.0686264
199 1 0.590086 0.852308 0.154839
15 1 0.729352 0.861061 0.0692878
80 1 0.595159 0.00496892 0.21075
326 2 0.694879 0.935278 0.187464
235 1 0.84116 0.764456 0.154698
95 1 0.178961 0.669769 0.0228998
171 1 0.955306 0.974686 0.0335696
338 2 0.984788 0.960374 0.170549
251 1 0.836223 0.956103 0.127863
2 1 -0.00490713 0.796602 0.143337
344 2 0.193535 0.906029 0.00190375
345 2 0.140569 0.984418 0.352736
256 1 0.215283 0.0827224 0.316899
85 1 0.0600963 0.0872845 0.400506
58 1 0.0140649 0.16787 0.281534
6 1 0.125679 0.250972 0.387143
42 1 0.892216 0.881397 0.238457
9 1 0.270623 0.108308 0.469026
78 1 0.275606 0.237514 0.317266
240 1 0.410404 0.176744 0.433076
148 1 0.428515 0.241865 0.271161
90 1 0.36448 0.0283015 0.364126
12 1 0.477102 0.0859314 0.271406
23 1 0.375652 0.244341 0.023058
264 1 0.593552 0.234827 0.246928
40 1 0.560679 0.136925 0.385499
139 1 0.717331 0.158954 0.328113
76 1 0.657034 0.0237042 0.350031
44 1 0.934399 0.0315629 0.290489
298 2 0.971278 0.191653 0.411486
135 1 0.77626 0.0481649 0.469948
274 1 0.861049 0.138761 0.365566
104 1 0.0543019 0.312858 0.232561
54 1 0.243699 0.258053 0.478465
230 1 0.1247 0.434003 0.333225
73 1 0.989321 0.331909 0.412196
311 2 0.226011 0.342242 0.36168
156 1 0.921129 0.0144713 0.457442
228 1 0.373991 0.3893 0.255471
72 1 0.359143 0.33313 0.393183
8 1 0.425868 0.492469 0.359636
49 1 0.265084 0.462458 0.37178
232 1 0.531296 0.375377 0.284842
69 1 0.953431 0.741776 0.298755
87 1 0.500026 0.354868 0.463604
295 2 0.500518 0.255477 0.37528
64 1 0.745859 0.28374 0.240522
254 1 0.619823 0.291212 0.388202
324 2 0.596074 0.408968 0.417993
178 1 0.690288 0.421196 0.28558
129 1 0.76395 0.333716 0.391977
358 2 0.813074 0.391602 0.290407
273 1 0.888715 0.289133 0.324097
99 1 0.980337 0.446482 0.274032
7 1 0.871473 0.44047 0.397809
337 2 0.189957 0.535672 0.28537
96 1 0.0651698 0.586498 0.302005
275 1 0.00901074 0.500756 0.457374
276 1 0.216648 0.720425 0.470411
282 1 0.224484 0.660858 0.325485
163 1 0.159262 0.53803 0.463526
278 1 0.0831527 0.675783 0.42968
350 2 0.366206 0.608535 0.331958
89 1 0.316808 0.588259 0.443711
18 1 0.481961 0.613892 0.27063
196 1 0.352595 0.731356 0.389283
75 1 0.699658 0.482612 0.430298
24 1 0.581227 0.544205 0.356951
224 1 0.492245 0.649979 0.422895
102 1 0.620963 0.7258 0.284609
187 1 0.683943 0.646683 0.395619
93 1 0.692666 0.591833 0.246462
164 1 0.945637 0.864382 0.38746
234 1 0.827795 0.716843 0.453419
119 1 0.806816 0.686442 0.292686
145 1 0.92937 0.609399 0.378588
328 2 0.951155 0.740652 0.438611
340 2 0.770739 0.553138 0.36184
110 1 0.0514081 0.893869 0.270331
255 1 0.0688266 0.9335 0.446719
303 2 0.0581853 0.784737 0.370968
269 1 0.182605 0.812744 0.367039
144 1 0.246371 0.959734 0.424119
227 1 0.486361 0.816548 0.383823
206 1 0.320173 0.852149 0.490502
204 1 0.34897 0.877486 0.329023
191 1 0.521162 0.972635 0.404309
316 2 0.828202 0.815355 0.352452
170 1 0.727116 0.795467 0.403925
66 1 0.609408 0.874012 0.303169
132 1 0.744798 0.839458 0.239812
154 1 0.670847 0.141875 -0.00460066