ITEM: TIMESTEP
0
ITEM: NUMBER OF ATOMS
360
ITEM: BOX BOUNDS pp pp pp
0.0000000000000000e+00 6.6943295008216896e+00
0.0000000000000000e+00 6.6943295008216896e+00
0.0000000000000000e+00 6.6943295008216896e+00
ITEM: ATOMS id type xs ys zs
22 1 0.115742 0.186518 0.136532
281 1 0.0690851 0.0563635 0.0832655
268 1 0.224393 0.0805305 0.181034
154 1 0.215732 0.0269272 0.0101733
232 1 0.285352 0.227017 0.232364
123 1 0.380191 0.126148 0.155549
335 2 0.344759 0.0231897 0.221012
21 1 0.469068 0.00707747 0.144818
240 1 0.479827 0.176918 0.0279925
184 1 0.258125 0.185485 0.0574215
217 1 0.715541 0.183179 0.200218
47 1 0.602513 0.0760012 0.0405038
208 1 0.507018 0.223459 0.1772
270 1 0.598029 0.0731114 0.201731
283 1 0.623122 0.239741 0.0739782
60 1 0.739309 0.0415943 0.156402
57 1 0.745492 0.1483 0.0395137
88 1 0.993542 0.177976 0.226637
195 1 0.921508 0.0465869 0.169997
100 1 0.865046 0.214558 0.14157
324 2 0.849794 0.0638904 0.0690745
25 1 0.946116 0.00679588 0.00240103
150 1 0.973231 0.177425 0.041155
147 1 0.198159 0.482802 0.0560385
86 1 0.172606 0.330737 0.0992738
161 1 0.000330013 0.301217 0.136462
116 1 0.101849 0.444688 0.20334
168 1 0.0303151 0.449252 0.046479
356 2 0.233904 0.480422 0.178616
347 2 0.0474742 0.29964 0.0150069
146 1 0.374447 0.269756 0.0776089
69 1 0.341213 0.414864 0.0959532
243 1 0.414034 0.344151 0.220583
209 1 0.256553 0.375224 0.232925
255 1 0.353594 0.494302 0.233206
319 2 0.733604 0.295418 0.246635
112 1 0.506875 0.355634 0.0976219
234 1 0.627934 0.353464 0.181394
248 1 0.500106 0.463327 0.212669
135 1 0.637414 0.387043 0.00933534
202 1 0.964137 0.425515 0.219415
301 2 0.751361 0.425509 0.172864
106 1 0.846951 0.340116 0.221576
292 2 0.881996 0.327847 0.0838234
16 1 0.756123 0.317551 0.100922
179 1 0.867541 0.447369 0.0906975
45 1 0.113349 0.584644 0.124315
284 1 0.232368 0.710145 0.115321
263 1 0.034133 0.713628 0.174478
107 1 0.0990449 0.747707 0.0400678
337 2 0.0798717 0.57249 0.246715
257 1 0.231389 0.587626 0.229239
339 2 0.213802 0.743369 0.232952
166 1 0.0111039 0.60727 0.00411618
18 1 0.437746 0.50642 0.0493027
239 1 0.307864 0.588034 0.0781175
33 1 0.409532 0.713725 0.0727976
72 1 0.493124 0.620053 0.177724
54 1 0.358185 0.677981 0.221991
102 1 0.582673 0.505851 0.0911989
216 1 0.642144 0.507993 0.220285
275 1 0.716368 0.68112 0.0987768
145 1 0.533662 0.636299 0.0181981
315 2 0.616826 0.628337 0.188659
15 1 0.729625 0.509112 0.0353646
308 2 0.957119 0.690666 0.0679812
62 1 0.974188 0.556357 0.147541
327 2 0.772289 0.569489 0.140077
198 1 0.865224 0.66369 0.191773
279 1 0.844389 0.515888 0.22646
98 1 0.86048 0.610994 0.0411865
152 1 0.225055 0.854019 0.0235041
37 1 0.0876075 0.91546 0.0257383
133 1 0.141346 0.832399 0.168231
321 2 0.161228 0.972605 0.123072
77 1 0.247464 0.934884 0.249395
246 1 0.0944008 0.988391 0.230293
80 1 0.324632 0.830386 0.155875
75 1 0.328649 0.975279 0.103896
93 1 0.475797 0.847301 0.114528
199 1 0.376768 0.840329 0.0015337
171 1 0.726556 0.989014 0.00410506
1 1 0.589157 0.753955 0.149254
236 1 0.614706 0.912168 0.0780605
329 2 0.74785 0.87533 0.0540996
42 1 0.727252 0.818086 0.162868
129 1 0.968724 0.834055 0.126132
320 2 0.990956 0.959563 0.12358
188 1 0.844359 0.776083 0.0541531
220 1 0.84788 0.928968 0.102229
346 2 0.858047 0.789017 0.181928
349 2 0.868284 0.930201 0.230933
323 2 0.921918 0.863156 0.00483528
91 1 0.109745 0.129652 0.303918
131 1 0.210778 0.215719 0.373611
297 2 0.0954809 0.0792231 0.428735
358 2 0.251041 0.08573 0.449568
204 1 0.305883 0.0994536 0.321202
262 1 0.422166 0.203124 0.298039
89 1 0.344889 0.194724 0.455327
31 1 0.474386 0.0581861 0.286915
201 1 0.416535 0.0572355 0.426128
48 1 0.62797 0.227159 0.463864
345 2 0.512034 0.14731 0.405798
215 1 0.606508 0.172333 0.320896
153 1 0.719304 0.0711032 0.344793
84 1 0.747665 0.2278 0.357755
225 1 0.581268 0.0207449 0.400661
354 2 0.990538 0.04088 0.285229
271 1 0.875152 0.00818354 0.334367
3 1 0.841481 0.14036 0.284609
108 1 0.829008 0.110234 0.448799
83 1 0.974871 0.118265 0.38176
298 2 0.924272 0.201734 0.460125
286 1 0.122174 0.300405 0.250097
143 1 0.0569763 0.252199 0.383498
104 1 0.187745 0.480783 0.321607
325 2 0.121619 0.45196 0.43408
306 2 0.168245 0.340215 0.365002
63 1 0.0488265 0.399417 0.350791
274 1 0.0126131 0.446446 0.496058
227 1 0.413359 0.466657 0.470928
235 1 0.260464 0.438859 0.458934
343 2 0.254906 0.315792 0.462631
124 1 0.329098 0.32634 0.358651
137 1 0.470718 0.267033 0.428429
353 2 0.353852 0.457674 0.358958
70 1 0.475425 0.397484 0.360099
317 2 0.535607 0.321832 0.256528
247 1 0.61672 0.32201 0.342609
228 1 0.725354 0.366845 0.453269
68 1 0.74796 0.422479 0.304247
19 1 0.615513 0.474156 0.367884
144 1 0.568753 0.390325 0.493609
360 2 0.974489 0.298641 0.276966
172 1 0.87938 0.29629 0.368366
170 1 0.887694 0.454249 0.359936
187 1 0.108047 0.688412 0.306376
51 1 0.144446 0.584671 0.427434
24 1 0.0103412 0.67271 0.445239
20 1 0.242081 0.713903 0.385424
127 1 0.135953 0.735338 0.497824
196 1 0.303088 0.579033 0.371293
181 1 0.448515 0.545549 0.347233
29 1 0.416232 0.691567 0.385508
304 2 0.428076 0.598261 0.499023
348 2 0.731236 0.55142 0.310965
120 1 0.570382 0.634686 0.318657
311 2 0.663088 0.627494 0.402613
258 1 0.564596 0.711805 0.460021
265 1 0.727788 0.668473 0.255648
35 1 0.558332 0.561277 0.472335
66 1 0.946636 0.731967 0.304971
264 1 0.983109 0.562474 0.32346
314 2 0.808315 0.655726 0.492126
210 1 0.757752 0.521648 0.4362
186 1 0.908434 0.553538 0.476452
260 1 0.840656 0.627114 0.351626
178 1 0.878507 0.744683 0.445112
259 1 0.0371431 0.965111 0.383981
272 1 0.185959 0.999707 0.369451
251 1 0.16111 0.833239 0.326414
6 1 0.0321882 0.813426 0.415357
277 1 0.174017 0.882527 0.486839
350 2 0.473053 0.791353 0.478008
310 2 0.251279 0.879314 0.38864
163 1 0.497149 0.765917 0.264909
96 1 0.402303 0.913336 0.253751
180 1 0.330306 0.801517 0.307237
139 1 0.444401 0.897748 0.39987
244 1 0.333099 0.82023 0.48175
326 2 0.335044 0.975282 0.352627
288 1 0.291404 0.978142 0.479902
290 2 0.713707 0.992443 0.4373
206 1 0.728171 0.751793 0.415144
176 1 0.591067 0.876063 0.436676
58 1 0.560233 0.930947 0.287173
125 1 0.710825 0.926995 0.290383
39 1 0.648582 0.787904 0.288583
103 1 0.825232 0.828799 0.297757
142 1 0.982644 0.88283 0.270687
276 1 0.800733 0.901595 0.426468
334 2 0.925786 0.882871 0.386048
5 1 0.110492 0.21659 0.65383
115 1 0.0341164 0.0840047 0.679688
169 1 0.218517 0.201607 0.539436
59 1 0.157616 0.047082 0.5413
237 1 0.00424049 0.0269472 0.528741
2 1 0.0595619 0.171417 0.516141
82 1 0.25656 0.187127 0.692092
230 1 0.283082 0.049512 0.630777
134 1 0.385297 0.163696 0.597741
223 1 0.411824 0.017213 0.681484
340 2 0.39432 0.0253006 0.55347
65 1 0.49806 0.140227 0.685804
111 1 0.707296 0.0339863 0.67747
269 1 0.678466 0.213165 0.618088
156 1 0.553727 0.00758457 0.624487
219 1 0.531244 0.112305 0.522482
197 1 0.628551 0.164387 0.749109
14 1 0.685057 0.0719207 0.528279
338 2 0.789026 0.135124 0.586105
119 1 0.912917 0.153703 0.575419
211 1 0.815612 0.212328 0.685132
9 1 0.872026 0.0659233 0.691846
231 1 0.972709 0.247161 0.701055
61 1 0.820869 0.00245043 0.557364
41 1 0.796657 0.241108 0.515483
12 1 0.238935 0.3535 0.606118
267 1 0.0467288 0.385727 0.648794
214 1 0.14022 0.485026 0.574234
316 2 0.136412 0.333238 0.723392
249 1 0.21272 0.433704 0.734989
122 1 0.129019 0.335096 0.501036
40 1 0.366966 0.329155 0.532687
56 1 0.471096 0.409683 0.613329
173 1 0.379928 0.296747 0.696883
175 1 0.378144 0.455348 0.729243
218 1 0.526471 0.259551 0.575401
17 1 0.611344 0.370237 0.658543
7 1 0.680524 0.469024 0.561419
222 1 0.74485 0.456901 0.737364
53 1 0.867495 0.409167 0.518394
126 1 0.757501 0.346818 0.622436
341 2 0.880411 0.283861 0.609017
273 1 0.888993 0.403033 0.687772
71 1 0.974943 0.297124 0.543519
174 1 0.0645743 0.544558 0.749164
253 1 0.191779 0.609554 0.689395
224 1 0.0579923 0.670685 0.618942
90 1 0.241812 0.744297 0.61237
322 2 0.177156 0.616075 0.558889
359 2 0.104763 0.709795 0.74982
357 2 0.0449834 0.56127 0.515336
185 1 0.289164 0.51197 0.602747
191 1 0.331712 0.642497 0.679543
256 1 0.439752 0.563568 0.624126
330 2 0.457702 0.702939 0.691917
285 1 0.430677 0.711788 0.574263
182 1 0.295085 0.636885 0.51065
193 1 0.570373 0.672375 0.629301
158 1 0.577373 0.514121 0.661713
266 1 0.686381 0.647889 0.541965
8 1 0.712417 0.607733 0.705684
177 1 0.974893 0.524343 0.63188
50 1 0.800013 0.548229 0.599056
252 1 0.908645 0.663779 0.584072
313 2 0.780455 0.672319 0.623743
118 1 0.861058 0.575333 0.748378
241 1 0.818 0.738033 0.732305
295 2 0.08721 0.931002 0.556906
99 1 0.0914366 0.820222 0.612903
278 1 0.130157 0.95988 0.675706
44 1 0.179129 0.84038 0.748003
94 1 0.28809 0.896236 0.611617
309 2 0.287277 0.77765 0.727072
148 1 0.440072 0.90191 0.546549
43 1 0.400625 0.822167 0.686426
352 2 0.502862 0.919102 0.723455
149 1 0.684251 0.767492 0.683082
207 1 0.548526 0.827115 0.598376
200 1 0.689178 0.89919 0.565838
105 1 0.626588 0.903629 0.719114
318 2 0.662239 0.772866 0.545056
114 1 0.544101 0.781629 0.737927
328 2 0.525852 0.976674 0.507348
157 1 0.981308 0.939832 0.671302
282 1 0.938356 0.894408 0.528865
32 1 0.795377 0.795297 0.561686
294 2 0.971574 0.770428 0.528706
212 1 0.931265 0.789191 0.656814
110 1 0.798311 0.902587 0.672346
13 1 0.176688 0.0675088 0.77072
302 2 0.0518614 0.111373 0.796386
117 1 0.102249 0.239374 0.80936
160 1 0.0843421 0.068844 0.9135
233 1 0.243365 0.149387 0.902145
229 1 0.117856 0.209409 0.966125
245 1 0.344534 0.112185 0.786838
336 2 0.425858 0.211723 0.802905
113 1 0.37612 0.217604 0.912895
280 1 0.427942 0.0171597 0.85417
203 1 0.370628 0.0669618 0.991302
261 1 0.519239 0.14979 0.858221
36 1 0.553684 0.0308148 0.775713
300 2 0.544254 0.0416989 0.907555
303 2 0.587338 0.18125 0.950804
92 1 0.67106 0.0849623 0.890843
307 2 0.901128 0.155533 0.789345
167 1 0.953153 0.0505523 0.818917
183 1 0.790767 0.00990905 0.817177
49 1 0.978699 0.203214 0.888443
67 1 0.830494 0.08149 0.934427
26 1 0.772957 0.168767 0.833034
23 1 0.119449 0.355364 0.924824
78 1 0.0175818 0.488905 0.885414
351 2 0.418648 0.346423 0.983215
238 1 0.265316 0.289694 0.805771
344 2 0.301575 0.41607 0.828656
141 1 0.415505 0.362829 0.853352
155 1 0.276555 0.335656 0.969326
305 2 0.428837 0.487063 0.851439
76 1 0.327932 0.476104 0.955777
4 1 0.52112 0.46444 0.936359
30 1 0.529876 0.290671 0.913943
38 1 0.536674 0.430862 0.784503
140 1 0.692325 0.260361 0.936553
121 1 0.527316 0.278611 0.752898
46 1 0.66777 0.405724 0.864289
164 1 0.710165 0.30603 0.764338
254 1 0.8386 0.252867 0.985914
28 1 0.99984 0.372664 0.793103
165 1 0.947784 0.361166 0.94091
226 1 0.860782 0.438623 0.828434
242 1 0.85935 0.294248 0.828888
221 1 0.787916 0.392941 0.960767
293 2 0.958039 0.497485 0.77196
331 2 0.864206 0.492699 0.948924
55 1 0.189413 0.630058 0.980321
332 2 0.1085 0.533782 0.975734
79 1 0.181081 0.512618 0.86892
287 1 0.0771657 0.648829 0.868413
130 1 0.226455 0.68047 0.821968
342 2 0.439959 0.721538 0.948536
205 1 0.318448 0.698816 0.951363
250 1 0.312974 0.557976 0.813444
11 1 0.462827 0.574421 0.769918
159 1 0.399116 0.720897 0.808029
190 1 0.414022 0.597095 0.914683
289 2 0.596438 0.665726 0.753694
299 2 0.640587 0.500039 0.951508
81 1 0.675885 0.728762 0.843796
97 1 0.659058 0.62219 0.955449
132 1 0.609663 0.556558 0.826871
162 1 0.537683 0.689445 0.871801
138 1 0.976272 0.668003 0.752911
151 1 0.76735 0.538588 0.885379
213 1 0.916751 0.603288 0.889841
73 1 0.803699 0.691972 0.899215
333 2 0.0554424 0.969296 0.782497
109 1 0.0315526 0.812784 0.779439
128 1 0.019686 0.897722 0.901452
27 1 0.139253 0.793938 0.894276
101 1 0.170829 0.942247 0.876354
87 1 0.310138 0.935682 0.773196
192 1 0.48072 0.950287 0.991897
52 1 0.309984 0.952107 0.92703
194 1 0.278641 0.822703 0.861669
189 1 0.472699 0.876273 0.843229
34 1 0.552808 0.793963 0.968202
136 1 0.609733 0.936253 0.919981
355 2 0.669645 0.978316 0.821293
10 1 0.728745 0.863105 0.821637
64 1 0.695742 0.779207 0.996712
312 2 0.601865 0.835152 0.855784
85 1 0.827929 0.8624 0.929071
95 1 0.905886 0.898306 0.786419
291 2 0.892393 0.964466 0.897216
74 1 0.954066 0.761809 0.957943
296 2 0.908642 0.752375 0.825603
ITEM: TIMESTEP
70000
ITEM: NUMBER OF ATOMS
360
ITEM: BOX BOUNDS pp pp pp
0.0000000000000000e+00 6.6943295008216896e+00
0.0000000000000000e+00 6.6943295008216896e+00
0.0000000000000000e+00 6.6943295008216896e+00
ITEM: ATOMS id type xs ys zs
246 1 0.0984978 0.089289 0.131617
204 1 0.250027 0.0990987 0.217743
162 1 0.424226 0.779748 0.0091628
292 2 0.0118549 0.206772 0.151593
52 1 0.169913 0.021014 0.010639
339 2 0.429315 0.120751 0.0388784
21 1 0.31688 0.056332 0.0677466
89 1 0.416995 0.0769886 0.213404
93 1 0.538582 0.98897 0.145847
232 1 0.324677 0.206371 0.142743
132 1 0.648739 0.577745 0.0153249
203 1 0.527346 0.138446 0.141631
100 1 0.690111 0.0688485 0.168936
324 2 0.573815 0.0653929 0.252035
92 1 0.672716 0.185989 0.0585109
112 1 0.642262 0.189341 0.243346
314 2 0.905592 0.668157 0.420906
88 1 0.946629 0.121256 0.227704
188 1 0.794386 0.159465 0.233037
355 2 0.791501 0.192008 0.0995228
150 1 0.927347 0.174184 0.0506441
272 1 0.159353 0.225742 0.15602
122 1 0.0276173 0.322289 0.221983
286 1 0.112395 0.444499 0.187298
322 2 0.130654 0.344221 0.11245
354 2 0.146557 0.332437 0.242663
226 1 0.0261516 0.286979 0.0618605
91 1 0.243386 0.312204 0.0562756
229 1 0.0325859 0.44327 0.0570494
69 1 0.36764 0.41404 -0.0171903
332 2 0.231387 0.432256 0.120584
63 1 0.292826 0.355325 0.200861
268 1 0.416854 0.313472 0.101086
351 2 0.419384 0.366397 0.237556
2 1 0.023698 0.92495 0.367041
146 1 0.518362 0.444215 0.170632
16 1 0.733348 0.298141 0.168998
255 1 0.568209 0.289514 0.124621
68 1 0.689946 0.456695 0.158739
341 2 0.613533 0.465227 0.0592203
257 1 0.954035 0.454893 0.193024
15 1 0.866366 0.396323 0.0804064
281 1 0.889407 0.272572 0.174163
38 1 0.663168 0.335168 0.0216107
140 1 0.801038 0.277318 0.0139665
357 2 0.918375 0.371564 0.277948
240 1 0.519611 0.385996 0.00493129
337 2 0.121824 0.527604 0.0733501
152 1 0.151526 0.638618 0.13153
284 1 0.243929 0.539835 0.198144
66 1 0.0560359 0.746498 0.247943
187 1 0.106239 0.578514 0.271804
45 1 0.25481 0.553865 0.0461521
294 2 0.270284 0.663985 0.151267
54 1 0.382247 0.488584 0.144529
80 1 0.395858 0.635653 0.103691
348 2 0.488816 0.573192 0.164059
4 1 0.4999 0.534848 0.0276918
72 1 0.362263 0.634512 0.246288
120 1 0.482579 0.713006 0.208922
185 1 0.25477 0.189156 0.475976
145 1 0.625087 0.71961 0.0739861
315 2 0.72458 0.596753 0.105573
198 1 0.6182 0.595616 0.170442
39 1 0.756662 0.668293 0.210709
102 1 0.810632 0.657082 0.0263769
263 1 -0.000141661 0.595727 0.117129
103 1 0.835058 0.539544 0.141669
74 1 0.892212 0.70916 0.157049
205 1 0.0289688 0.756371 0.0942972
142 1 0.0775422 0.909378 0.0582611
133 1 0.179768 0.79436 0.122774
262 1 0.225236 0.956775 0.151456
282 1 0.113386 0.0397187 0.278141
277 1 0.0740126 0.888997 0.208096
77 1 0.318855 0.896432 0.0413435
234 1 0.40189 0.930901 0.191075
163 1 0.526954 0.84179 0.11568
96 1 0.35785 0.779339 0.154163
290 2 0.891357 0.997185 0.407728
129 1 0.750976 0.788695 0.105672
64 1 0.655973 0.921875 0.0797041
29 1 0.635794 0.789276 0.207814
265 1 0.79467 0.937476 0.178425
301 2 0.519852 0.870994 0.243056
283 1 0.834469 0.0676096 0.110975
346 2 0.127278 0.728723 0.0112967
37 1 0.898191 0.83271 0.052474
42 1 0.916579 0.831871 0.250341
60 1 0.945377 0.964806 0.132424
153 1 0.0758026 0.180269 0.28594
134 1 0.211568 0.0871777 0.370988
169 1 0.0867006 0.137809 0.463232
131 1 0.228444 0.249746 0.300553
56 1 0.55205 0.201844 0.505031
276 1 0.795128 0.704083 0.4787
124 1 0.472653 0.253335 0.244664
31 1 0.359341 0.149714 0.347998
358 2 0.457563 0.0600159 0.412226
217 1 0.529361 0.14853 0.346369
303 2 0.805101 0.0394605 0.239999
135 1 0.666194 0.060548 0.336595
3 1 0.580224 0.0293418 0.466425
143 1 0.714152 0.168523 0.476049
349 2 0.780236 0.825534 0.227339
61 1 0.923089 0.237312 0.323121
83 1 0.739822 0.263466 0.34613
48 1 0.829333 0.0947935 0.359404
215 1 0.983481 0.0922264 0.37539
338 2 0.828178 0.211088 0.421674
178 1 0.888343 0.848696 0.410924
116 1 0.193668 0.424136 0.32294
218 1 0.119678 0.306661 0.391169
256 1 0.247843 0.365269 0.487246
104 1 0.145599 0.524061 0.444129
62 1 0.922139 0.527071 -0.00540995
306 2 0.272902 0.47983 0.429815
345 2 0.461117 0.236679 0.411227
209 1 0.361663 0.327932 0.370636
70 1 0.389695 0.437 0.474124
227 1 0.358231 0.474464 0.324671
216 1 0.499518 0.395936 0.336282
106 1 0.590194 0.280198 0.387391
319 2 0.495856 0.487621 0.419844
172 1 0.620371 0.362359 0.252243
144 1 0.523139 0.363657 0.497345
98 1 0.640689 0.436921 0.384749
360 2 0.756338 0.393308 0.39505
53 1 0.966291 0.444033 0.483817
275 1 0.789649 0.403303 0.272634
274 1 0.0290197 0.444502 0.332708
161 1 0.876658 0.354913 0.39085
213 1 0.880787 0.510774 0.381686
230 1 0.31712 0.0473955 0.471339
6 1 0.144474 0.683762 0.399904
251 1 0.218401 0.713273 0.252692
295 2 0.260014 0.622916 0.452777
235 1 0.24678 0.575684 0.342858
20 1 0.385481 0.590558 0.42913
181 1 0.481676 0.695497 0.362213
180 1 0.311304 0.725056 0.380327
18 1 0.515846 0.545883 0.302973
206 1 0.633308 0.72701 0.459715
279 1 0.730213 0.54017 0.303198
35 1 0.582343 0.577983 0.438882
248 1 0.621436 0.671325 0.314889
19 1 0.756783 0.575636 0.452197
356 2 0.748763 0.668778 0.349297
260 1 0.936928 0.592206 0.256784
264 1 0.00515472 0.596081 0.395566
202 1 0.857275 0.714435 0.309868
259 1 1.00071 0.745889 0.386439
270 1 0.917901 0.974814 0.273761
326 2 0.215151 0.957304 0.32722
196 1 0.159665 0.969613 0.452506
59 1 0.151775 0.822865 0.330452
192 1 0.443977 0.977118 0.0136817
244 1 0.273736 0.866952 0.249122
46 1 0.743496 0.47457 0.0172658
139 1 0.426182 0.784262 0.467343
288 1 0.348063 -0.00837439 0.308896
208 1 0.509541 0.976932 0.312376
58 1 0.411398 0.850073 0.322875
127 1 0.291396 0.883706 0.41232
201 1 0.441846 0.939293 0.443666
335 2 0.632176 0.939843 0.3744
1 1 0.718805 0.79416 0.348154
225 1 0.644769 0.933477 0.247857
236 1 0.781732 0.939775 0.338023
125 1 0.556567 0.824309 0.352528
47 1 0.575829 0.0614715 0.0175351
73 1 1.00717 0.0438674 0.00627913
278 1 0.0467465 0.835404 0.498689
329 2 0.77985 0.90153 0.0462187
126 1 0.807121 0.444327 0.502267
271 1 0.747343 0.871235 0.477273
195 1 0.973351 0.275616 0.482734
84 1 0.751875 0.0193938 0.457772
55 1 0.268817 0.699789 0.0196595
157 1 0.0143995 -0.00580902 0.495301
119 1 0.186645 0.0822813 0.577129
115 1 0.0815678 0.174784 0.694942
325 2 0.211636 0.210909 0.660059
12 1 0.132967 0.263923 0.548122
27 1 0.954273 0.687587 0.980452
291 2 0.0570825 0.0494621 0.613542
297 2 0.0170672 0.182859 0.578141
137 1 0.327397 0.136359 0.616996
280 1 0.398435 0.0516768 0.71472
340 2 0.380642 0.254037 0.690579
299 2 0.811458 0.76962 0.980895
65 1 0.479152 0.180815 0.666382
269 1 0.442764 0.096453 0.535172
9 1 0.621427 0.143893 0.627102
247 1 0.517993 0.988019 0.632653
111 1 0.696082 0.0687318 0.740378
197 1 0.608972 0.225367 0.775594
298 2 0.807968 0.00999723 0.688604
183 1 0.927767 0.0785295 0.661321
5 1 0.920084 0.226084 0.645604
41 1 0.78805 0.0961042 0.599026
296 2 0.730962 0.788358 0.842366
155 1 0.149974 0.337771 0.679529
267 1 0.167531 0.517712 0.650235
40 1 0.119222 0.41107 0.535415
249 1 0.0310407 0.474814 0.748088
71 1 0.00957422 0.338044 0.616457
359 2 0.226721 0.436017 0.753599
214 1 0.286286 0.282013 0.607615
238 1 0.254832 0.275451 0.758929
173 1 0.429301 0.357741 0.619929
175 1 0.299974 0.432918 0.644233
7 1 0.504003 0.515646 0.555535
11 1 0.454548 0.469874 0.720369
343 2 0.529785 0.273486 0.600253
186 1 0.651317 0.473034 0.539526
121 1 0.585715 0.379589 0.662289
228 1 0.680305 0.322025 0.516795
211 1 0.754228 0.239325 0.672703
222 1 0.743313 0.40379 0.636854
170 1 0.818065 0.281063 0.531497
177 1 0.898592 0.455372 0.628859
307 2 0.861481 0.331905 0.636793
316 2 0.92994 0.381865 0.7261
200 1 0.717615 0.89748 0.723543
118 1 0.167471 0.649433 0.560364
24 1 0.0356749 0.549314 0.57664
166 1 0.060754 0.622095 0.719603
252 1 0.00393803 0.704963 0.543875
224 1 0.20241 0.665467 0.730274
253 1 0.289122 0.55199 0.764316
79 1 0.397105 0.575626 0.629239
304 2 0.273223 0.611207 0.629729
182 1 0.329266 0.692307 0.554175
193 1 0.486856 0.658833 0.527867
158 1 0.678744 0.52499 0.680489
313 2 0.526935 0.566539 0.673439
149 1 0.553854 0.706981 0.692904
258 1 0.622091 0.625304 0.583166
311 2 0.780257 0.540213 0.584211
174 1 0.767009 0.647044 0.65
334 2 0.867935 0.687568 0.596467
237 1 0.962779 0.752274 0.679836
321 2 0.967789 0.903701 0.959991
221 1 0.915525 0.598249 0.688156
327 2 0.608835 0.968008 0.724226
212 1 0.116039 0.781962 0.63543
94 1 0.264938 0.991324 0.677092
333 2 0.165259 0.924395 0.718546
167 1 0.136331 0.946003 0.595344
194 1 0.985782 0.91667 0.627117
352 2 0.898389 0.784688 0.785799
210 1 0.442188 0.798717 0.615096
191 1 0.27867 0.836231 0.612768
223 1 0.392792 0.949887 0.578834
330 2 0.490171 0.808783 0.742243
43 1 0.362674 0.889978 0.736206
350 2 0.664672 0.756343 0.708318
328 2 0.563795 0.752056 0.569674
148 1 0.591011 0.848861 0.657418
207 1 0.698309 0.77333 0.582397
156 1 0.666933 0.992498 0.595516
136 1 0.869722 0.986524 0.975412
168 1 0.167043 0.43298 0.993518
32 1 0.799796 0.773199 0.711622
14 1 0.864914 0.967154 0.541047
318 2 0.792764 0.891699 0.626619
99 1 0.87354 0.806871 0.555994
13 1 0.226008 0.119312 0.752574
81 1 0.715611 0.860826 0.938263
101 1 0.0698498 0.0104773 0.729404
128 1 0.876208 0.86286 0.884596
220 1 0.118954 0.0879418 0.857748
320 2 0.147883 0.303293 0.968159
160 1 0.268045 0.0866968 0.908603
245 1 0.37829 0.17879 0.799706
344 2 0.309984 0.0461291 0.797208
51 1 0.287909 0.531665 0.53491
347 2 0.525061 0.0224538 0.912911
353 2 0.252097 0.943885 0.533476
336 2 0.248128 0.207609 0.87259
34 1 0.530106 0.0854761 0.778427
57 1 0.620195 0.130941 0.899333
300 2 0.511296 0.192294 0.875357
273 1 0.727306 0.249178 0.885033
49 1 0.0355306 0.19252 0.938346
105 1 0.808492 0.138231 0.956344
85 1 0.958142 -0.000635049 0.833554
323 2 0.918952 0.0971775 0.912685
26 1 0.824334 0.146675 0.779895
242 1 0.984601 0.152381 0.805875
189 1 0.798306 0.997825 0.824707
67 1 0.0231618 0.308844 0.778936
82 1 0.130018 0.244449 0.846341
23 1 0.137489 0.401889 0.830228
86 1 0.0363394 0.352528 0.929652
331 2 0.041361 0.480016 0.937206
17 1 0.486147 0.319734 0.755958
184 1 0.251599 0.321709 0.902768
141 1 0.340411 0.399917 0.799484
113 1 0.426735 0.28632 0.899279
239 1 0.4667 0.44704 0.879974
305 2 0.560496 0.417544 0.79456
30 1 0.581461 0.311116 0.890046
165 1 0.688257 0.403958 0.803729
50 1 0.618576 0.470882 0.926374
159 1 0.556364 0.863145 0.944915
110 1 0.871032 0.907371 0.726907
231 1 0.826343 0.31605 0.782813
164 1 0.894234 0.244944 0.892167
28 1 0.812193 0.503019 0.762929
22 1 0.8023 0.386849 0.919795
78 1 0.921645 0.428364 0.847971
308 2 0.925349 0.356777 0.981232
302 2 0.0844012 0.75362 0.752623
107 1 0.0705642 0.593076 0.972348
117 1 0.143955 0.548724 0.836216
342 2 0.202716 0.614693 0.949715
10 1 0.993089 0.71287 0.822681
287 1 0.143892 0.714572 0.871894
33 1 0.388499 0.624527 0.958342
250 1 0.299021 0.671292 0.845695
289 2 0.571433 0.682537 0.832135
147 1 0.276654 0.510428 0.900355
76 1 0.441154 0.623082 0.792392
199 1 0.308658 0.832216 0.894781
241 1 0.694405 0.673542 0.790893
190 1 0.540082 0.680769 0.955883
317 2 0.500267 0.573536 0.891825
8 1 0.581831 0.543555 0.796877
312 2 0.665291 0.594401 0.888172
151 1 0.696636 0.707025 0.941688
179 1 0.888618 0.580754 0.522754
293 2 0.814139 0.633848 0.774358
109 1 0.946586 0.578518 0.854797
254 1 0.785459 0.561136 0.898045
138 1 0.828711 0.709771 0.869393
114 1 0.607977 0.809763 0.807243
285 1 0.233701 0.809609 0.761856
130 1 0.184988 0.832547 0.968422
25 1 0.0777202 0.950992 0.898183
87 1 0.217832 0.960125 0.821239
44 1 0.0195235 0.871356 0.771941
309 2 0.138657 0.846204 0.845743
95 1 0.0369967 0.807685 0.936386
97 1 0.64249 0.974903 0.850574
310 2 0.262596 0.963944 0.93677
219 1 0.504762 0.940913 0.782079
233 1 0.38107 0.968317 0.863235
123 1 0.429299 0.101083 0.912293
36 1 0.454967 0.774715 0.85454
266 1 0.356211 0.716352 0.707029
261 1 0.51449 0.202917 1.00242
75 1 0.339006 0.218174 0.988938
154 1 0.186218 0.178553 0.989733
108 1 0.897289 0.134806 0.505653
90 1 0.18485 0.788478 0.492422
176 1 0.561919 0.865656 0.50328
171 1 0.719407 0.0154306 0.986385
243 1 0.401176 0.240856 0.527998
ITEM: TIMESTEP
140000
ITEM: NUMBER OF ATOMS
360
ITEM: BOX BOUNDS pp pp pp
0.0000000000000000e+00 6.6943295008216896e+00
0.0000000000000000e+00 6.6943295008216896e+00
0.0000000000000000e+00 6.6943295008216896e+00
ITEM: ATOMS id type xs ys zs
134 1 0.101019 0.164345 0.21473
353 2 0.23519 0.808136 0.485495
358 2 0.127115 0.0879597 0.112362
204 1 0.255378 0.0524897 0.111535
52 1 0.116905 0.972849 0.0761015
47 1 0.426595 0.110358 0.102862
132 1 0.734177 0.696096 0.0031541
124 1 0.257369 0.130897 0.248517
339 2 0.47077 0.26445 0.122978
88 1 0.88204 0.990636 0.347996
292 2 0.337599 0.231064 0.271728
64 1 0.696334 0.136638 0.0918702
30 1 0.563028 0.205484 0.056425
255 1 0.629266 0.22733 0.196745
112 1 0.553507 0.0881618 0.206017
150 1 0.691632 0.124753 0.313044
219 1 0.554543 0.030737 0.0612208
272 1 -0.000345078 0.0797505 0.115263
100 1 0.799865 0.204058 0.201799
73 1 0.857733 0.114724 0.0656207
135 1 0.80671 0.0449256 0.21981
281 1 0.950684 0.22587 0.187089
16 1 0.887372 0.256112 0.0431667
323 2 0.931716 0.987614 0.0629226
122 1 0.0873983 0.315098 0.169716
308 2 0.143706 0.427139 0.130752
147 1 0.136949 0.357429 0.0279813
66 1 0.274418 0.381145 0.111151
168 1 0.189797 0.210244 0.0968311
103 1 0.218252 0.283358 0.246702
39 1 0.0159971 0.454104 0.117365
116 1 0.133937 0.430705 0.255565
310 2 0.350374 0.0436051 0.000564575
256 1 0.341145 0.218893 0.146303
209 1 0.448588 0.340301 0.219407
63 1 0.35508 0.516284 0.0867068
92 1 0.419382 0.36555 0.0676991
332 2 0.422706 0.450156 0.177734
286 1 0.311992 0.406742 0.252896
347 2 0.619852 0.43046 0.0375081
91 1 0.575024 0.352598 0.133607
172 1 0.706929 0.362925 0.211715
146 1 0.75163 0.429565 0.0655592
15 1 0.878068 0.37617 0.172419
322 2 0.985631 0.323092 0.0885199
226 1 0.89936 0.419945 0.0204288
349 2 0.100613 0.541485 0.189506
55 1 0.166235 0.516637 0.0431369
59 1 0.158486 0.647585 0.138059
133 1 0.0593877 0.747065 0.0797303
2 1 0.0235858 0.700252 0.234425
284 1 0.229707 0.520018 0.182442
72 1 0.413215 0.570684 0.219771
45 1 0.314266 0.668947 0.122017
162 1 0.465912 0.639805 0.0959888
251 1 0.353208 0.707701 0.296615
173 1 0.512695 0.492082 0.0691273
151 1 0.527628 0.890238 0.00491399
351 2 0.540299 0.554266 0.202425
102 1 0.611131 0.651309 0.114987
190 1 0.52141 0.743923 0.228512
38 1 0.665592 0.553989 -0.00303036
74 1 0.649581 0.499586 0.147244
227 1 0.371438 0.434931 0.461657
62 1 0.0167925 0.603022 0.0801103
264 1 0.968588 0.544887 0.243768
341 2 0.728589 0.608634 0.125682
355 2 0.893173 0.497062 0.127955
260 1 0.871395 0.644191 0.178711
205 1 0.911355 0.742879 0.0628809
68 1 0.86176 0.581326 0.0256959
196 1 0.137611 0.847543 0.1561
234 1 0.214256 0.759173 0.0344588
244 1 0.282049 0.795511 0.179674
93 1 0.2697 0.906543 0.0796653
203 1 0.397721 0.963873 0.119646
96 1 0.439354 0.800624 0.114952
145 1 0.674029 0.997488 0.161265
229 1 0.0503281 0.215277 0.0490888
225 1 0.528621 0.922753 0.176734
236 1 0.650205 0.819729 0.234712
293 2 0.559625 0.75942 0.103019
265 1 0.659853 0.860678 0.0880736
129 1 0.771632 0.764201 0.140482
246 1 0.941964 0.948971 0.209958
277 1 0.985343 0.880541 0.0820294
283 1 0.810456 0.922865 0.0900239
270 1 0.902496 0.803017 0.219757
202 1 0.780944 0.896669 0.246893
89 1 0.22801 0.035983 0.374297
131 1 0.102941 0.152472 0.384315
354 2 0.158941 0.24075 0.480871
257 1 0.234651 0.217353 0.377205
301 2 0.881076 0.84632 0.338149
268 1 0.469437 0.205165 0.276002
106 1 0.400877 0.077834 0.242165
31 1 0.370224 0.15119 0.396296
217 1 0.511587 0.0647209 0.386173
340 2 0.474512 0.249152 0.421473
143 1 0.649487 0.105142 0.451115
216 1 0.590999 0.215004 0.365434
56 1 0.741234 0.241936 0.423786
125 1 0.733008 -0.0105317 0.369156
315 2 0.710472 0.258134 0.292191
161 1 0.816083 0.071632 0.475769
61 1 0.98932 0.0901912 0.28041
71 1 0.89667 0.209437 0.477165
12 1 0.969561 0.083733 0.440963
48 1 0.841878 0.138708 0.335075
83 1 0.979958 0.223631 0.353148
263 1 0.108934 0.307965 0.361354
118 1 0.216314 0.429913 0.387163
1 1 0.813407 0.869598 0.452373
104 1 0.0653388 0.450575 0.387614
188 1 0.69459 0.292206 0.0577614
144 1 0.379275 0.312007 0.361215
235 1 0.437209 0.455753 0.319937
175 1 0.25607 0.545526 0.469786
69 1 0.574572 0.432648 0.255898
54 1 0.524359 0.363137 0.397589
271 1 0.00753967 0.876259 0.409996
319 2 0.576868 0.314609 0.287369
75 1 0.680298 0.358754 0.360296
4 1 0.537968 0.51396 0.446453
18 1 0.694278 0.506746 0.329691
279 1 0.78222 0.505811 0.200195
274 1 0.954748 0.367809 0.439547
275 1 0.98712 0.369367 0.281911
228 1 0.853673 0.307212 0.319207
360 2 0.78716 0.426167 0.305673
24 1 0.899186 0.490841 0.363602
170 1 0.799134 0.397626 0.453571
304 2 0.127751 0.606288 0.431851
51 1 0.242699 0.689782 0.400375
6 1 0.141427 0.576292 0.305425
324 2 0.241245 0.646683 0.232699
290 2 0.893333 0.977135 0.479015
187 1 0.287296 0.56237 0.319609
79 1 0.399135 0.603079 0.414809
127 1 0.455621 0.774527 0.395126
180 1 0.545258 0.60691 0.318078
80 1 0.686785 0.650251 0.25187
328 2 0.526283 0.673426 0.452046
356 2 0.702204 0.646366 0.397418
139 1 0.602933 0.733985 0.374887
213 1 0.00734141 0.606899 0.387707
334 2 0.916061 0.635805 0.469373
29 1 0.812228 0.708786 0.465519
179 1 0.820614 0.62081 0.324312
126 1 0.786171 0.558255 0.470229
326 2 0.0564923 0.0179351 0.355597
90 1 0.16962 0.758403 0.271218
262 1 0.115563 0.01485 0.233301
214 1 0.095381 -0.00123311 0.4688
212 1 0.095957 0.742427 0.41416
119 1 0.0409758 0.842008 0.275323
169 1 0.164421 0.886506 0.364781
198 1 0.780195 0.757302 0.320938
288 1 0.285543 0.961328 0.228391
191 1 0.305449 0.842327 0.365012
208 1 0.371792 0.98497 0.363464
294 2 0.45179 0.96505 0.281934
108 1 0.93416 0.745049 0.378516
230 1 0.412272 0.852361 0.265393
206 1 0.519986 0.917979 0.42792
329 2 0.556861 0.850631 0.322833
163 1 0.600724 0.973547 0.303494
120 1 0.676162 0.860116 0.396949
243 1 0.258265 0.319328 0.482452
337 2 0.276223 0.605509 0.0055959
291 2 0.0166481 0.0429032 0.650837
87 1 0.0913712 0.130573 0.726958
238 1 0.171886 0.208485 0.618943
153 1 0.0656774 0.117956 0.558524