ITEM: TIMESTEP
0
ITEM: NUMBER OF ATOMS
360
ITEM: BOX BOUNDS pp pp pp
0.0000000000000000e+00 6.6943295008216896e+00
0.0000000000000000e+00 6.6943295008216896e+00
0.0000000000000000e+00 6.6943295008216896e+00
ITEM: ATOMS id type xs ys zs
4 1 0.0208333 0.0137917 0.134685
97 1 0.175121 0.179018 0.0792874
315 2 0.0600756 0.0916608 0.0379039
181 1 0.00185181 0.164101 0.172888
332 2 0.143307 0.158041 0.22625
8 1 0.238048 0.0948458 0.178112
139 1 0.120194 0.0471458 0.232733
156 1 0.147286 0.0188004 0.0860706
144 1 0.434243 0.0924929 0.0221285
101 1 0.304608 0.101463 0.0430272
24 1 0.397427 0.122221 0.170724
192 1 0.29383 0.233532 0.0397575
274 1 0.702916 0.0535642 0.123774
10 1 0.72551 0.162219 0.199189
327 2 0.585241 0.221722 0.0444717
79 1 0.599342 0.104769 0.184155
14 1 0.565731 0.0441046 0.0401211
129 1 0.534036 0.00164419 0.245983
346 2 0.50973 0.131462 0.131683
316 2 0.767319 0.238849 0.117963
283 1 0.918465 0.115264 0.0545268
67 1 0.792732 0.119431 0.0241665
307 2 0.975343 0.066464 0.229441
22 1 0.838653 0.0527035 0.240217
337 2 0.222846 0.309669 0.121466
88 1 0.00153178 0.444197 0.0528436
213 1 0.190946 0.276212 0.221905
145 1 0.105605 0.413331 0.141887
167 1 0.0108422 0.499119 0.219981
31 1 0.00611367 0.291935 0.115137
319 2 0.102 0.260072 0.0330873
172 1 0.177803 0.367939 0.0195363
123 1 0.423764 0.289282 0.134157
2 1 0.2854 0.441042 0.139597
108 1 0.325686 0.35902 0.238459
280 1 0.377356 0.498531 0.23518
194 1 0.482186 0.470299 0.139298
104 1 0.495738 0.350216 0.240974
89 1 0.483579 0.266792 0.00795258
235 1 0.725656 0.303574 0.202223
93 1 0.592832 0.296219 0.127207
34 1 0.732589 0.380286 0.0572912
160 1 0.530669 0.417065 0.000478594
94 1 0.629321 0.453908 0.0966956
82 1 0.723898 0.453782 0.193517
138 1 0.907468 0.339715 0.0325262
287 1 0.846653 0.468056 0.0728788
106 1 0.876173 0.250772 0.216295
208 1 0.967797 0.37217 0.237462
247 1 0.830211 0.382945 0.175105
1 1 0.142232 0.574376 0.156904
17 1 0.216525 0.675558 0.211526
15 1 0.1914 0.505404 0.0261931
28 1 0.0857287 0.633765 0.0397687
272 1 0.114551 0.742485 0.139306
133 1 0.257534 0.614617 0.0653463
171 1 0.390366 0.640036 0.0271172
202 1 0.367218 0.510099 0.0355982
317 2 0.469366 0.682958 0.0741372
357 2 0.270753 0.522713 0.211779
143 1 0.317218 0.745909 0.0973688
164 1 0.397553 0.730275 0.234018
197 1 0.711442 0.569235 0.108116
84 1 0.561617 0.708697 0.209003
218 1 0.530959 0.575676 0.223236
338 2 0.65567 0.655006 0.154616
265 1 0.677658 0.585686 0.237552
6 1 0.553501 0.603087 0.100263
267 1 0.899096 0.591713 0.0122297
127 1 0.848809 0.682326 0.227296
240 1 0.789657 0.744981 0.100174
12 1 0.952901 0.747976 0.129981
113 1 0.94534 0.594255 0.127668
7 1 0.756711 0.648406 0.0091932
250 1 0.218743 0.844783 0.220869
62 1 0.166759 0.855801 0.0287254
254 1 0.0483038 0.869925 0.147925
251 1 0.0418986 0.801904 0.0359665
57 1 0.337493 0.96117 0.165272
53 1 0.41423 0.954012 0.0413222
134 1 0.432429 0.808652 0.0752998
45 1 0.696758 0.756614 0.24146
161 1 0.583766 0.84858 0.0811634
300 2 0.681696 0.956796 0.162935
353 2 0.674799 0.969048 0.0205856
25 1 0.506598 0.963834 0.13754
95 1 0.716728 0.865257 0.113181
162 1 0.617382 0.878548 0.236703
352 2 0.906152 0.989603 0.0174846
142 1 0.869861 0.95499 0.158868
37 1 0.801063 0.969183 0.0478347
225 1 0.766746 0.923149 0.226722
231 1 0.915403 0.859485 0.0607145
21 1 0.107229 0.140684 0.330161
124 1 0.140744 0.123779 0.482895
340 2 0.0386063 0.182272 0.408569
269 1 0.0639508 0.243175 0.261793
191 1 0.0132448 0.0627218 0.380498
248 1 0.477711 0.117608 0.344978
122 1 0.281813 0.142541 0.3871
212 1 0.372915 0.226659 0.304109
328 2 0.453091 0.194383 0.448774
76 1 0.350748 0.0455445 0.414868
80 1 0.546548 0.209521 0.258872
348 2 0.735618 0.0441385 0.280574
236 1 0.630449 0.110462 0.375572
78 1 0.580057 0.0156042 0.453392
356 2 0.781616 0.0166109 0.417726
155 1 0.937974 0.1489 0.310977
266 1 0.851595 0.102628 0.393357
263 1 0.751022 0.170903 0.422983
259 1 0.248937 0.441577 0.30781
347 2 0.112464 0.494557 0.295413
302 2 0.236266 0.323244 0.320446
116 1 0.121147 0.364221 0.380354
141 1 0.19897 0.437216 0.469172
58 1 0.424039 0.304895 0.451742
119 1 0.404352 0.407679 0.335754
118 1 0.278345 0.301842 0.461187
38 1 0.345094 0.43361 0.453338
214 1 0.680092 0.26776 0.406041
295 2 0.650622 0.254344 0.290278
103 1 0.715249 0.436892 0.326587
233 1 0.613639 0.370649 0.274899
72 1 0.736104 0.492599 0.465841
230 1 0.597177 0.437151 0.499327
339 2 0.985566 0.269763 0.429852
255 1 0.858192 0.285085 0.368765
326 2 0.963777 0.250813 0.30698
51 1 0.862227 0.424416 0.367392
210 1 0.988669 0.426517 0.351306
350 2 0.965474 0.494392 0.41891
243 1 0.768298 0.334892 0.476755
187 1 0.0397579 0.696396 0.381612
264 1 0.111835 0.532072 0.41251
304 2 0.0519491 0.615689 0.260907
262 1 0.164609 0.747066 0.304785
343 2 0.155437 0.639317 0.406195
234 1 0.210647 0.574029 0.315149
77 1 0.0340932 0.647516 0.486541
238 1 0.391208 0.674293 0.373926
185 1 0.343575 0.538427 0.370593
47 1 0.461172 0.559553 0.455081
261 1 0.266352 0.696077 0.39322
324 2 0.487348 0.536615 0.320859
313 2 0.507406 0.700467 0.435444
35 1 0.605357 0.532543 0.354012
182 1 0.601187 0.622876 0.470216
198 1 0.651565 0.718117 0.37911
169 1 0.53063 0.677563 0.331783
26 1 0.912334 0.60838 0.432742
75 1 0.829291 0.526057 0.259854
81 1 0.87377 0.74392 0.371697
301 2 0.773298 0.64016 0.345771
105 1 0.937882 0.594656 0.302851
244 1 0.784498 0.626956 0.463331
222 1 0.229541 0.954175 0.272147
228 1 0.164517 0.847437 0.435033
52 1 0.0534771 0.802968 0.482452
140 1 0.226984 0.976042 0.431749
121 1 0.0832546 0.940929 0.308105
200 1 0.0171037 0.781831 0.264169
284 1 0.33479 0.809293 0.286582
63 1 0.485115 0.821843 0.256987
157 1 0.442025 0.797651 0.420566
241 1 0.410836 0.942722 0.275262
275 1 0.582716 0.779157 0.483625
30 1 0.656387 0.980277 0.318955
258 1 0.725051 0.832394 0.381135
46 1 0.561548 0.883745 0.374113
54 1 0.701335 0.934795 0.475357
342 2 0.994934 0.939676 0.41888
87 1 0.853547 0.911785 0.427239
112 1 0.927734 0.927152 0.299169
61 1 0.887516 0.81316 0.251385
314 2 0.00733025 0.0328749 0.604541
49 1 0.145133 0.169599 0.691851
310 2 0.0496549 0.0935928 0.70959
330 2 0.205283 0.101353 0.629535
196 1 0.143042 0.0224365 0.717732
325 2 0.0987378 0.0398867 0.507728
331 2 0.0498366 0.135968 0.587924
5 1 0.292009 0.0231262 0.655767
135 1 0.475598 0.0899777 0.666645
223 1 0.398242 0.193858 0.625714
216 1 0.435353 0.0273533 0.521565
56 1 0.269764 0.14272 0.543135
237 1 0.597369 0.15681 0.657118
291 2 0.502258 0.150703 0.562699
128 1 0.746222 0.126574 0.671574
149 1 0.657814 0.155311 0.526021
174 1 0.775963 0.0314115 0.563571
176 1 0.922794 0.182598 0.536427
60 1 0.981803 0.184471 0.658058
252 1 0.152737 0.301882 0.537808
96 1 0.0481491 0.396671 0.523799
257 1 0.0727423 0.367396 0.693606
193 1 0.256109 0.256872 0.629323
29 1 0.414385 0.336621 0.666765
305 2 0.309454 0.378386 0.536879
50 1 0.277243 0.38593 0.686592
290 2 0.446274 0.371444 0.543794
270 1 0.435354 0.472599 0.561428
286 1 0.676341 0.368075 0.622415
109 1 0.677278 0.493902 0.592319
154 1 0.653522 0.310721 0.742301
299 2 0.714044 0.270754 0.63316
242 1 0.539182 0.380317 0.611108
320 2 0.723556 0.430992 0.693195
114 1 0.593022 0.286994 0.510955
359 2 0.977654 0.458938 0.67492
36 1 0.824873 0.303217 0.606485
42 1 0.785788 0.312017 0.734574
179 1 0.92572 0.338224 0.700962
298 2 0.843976 0.415448 0.70387
111 1 0.921667 0.331813 0.525025
260 1 0.887469 0.475586 0.503009
220 1 0.211047 0.605851 0.526054
201 1 0.065536 0.709957 0.626293
336 2 0.204917 0.67346 0.671301
289 2 0.0564862 0.601873 0.727532
68 1 0.0744502 0.508823 0.604839
312 2 0.236712 0.722503 0.501156
186 1 0.298464 0.621925 0.635923
256 1 0.29043 0.510621 0.566718
91 1 0.34747 0.676154 0.537532
224 1 0.463986 0.523603 0.743349
184 1 0.451258 0.747623 0.684329
344 2 0.279133 0.619271 0.742847
215 1 0.555886 0.546034 0.65282
303 2 0.623044 0.74796 0.585957
221 1 0.718202 0.60653 0.749392
126 1 0.655101 0.644596 0.584213
276 1 0.502062 0.679911 0.566807
132 1 0.906077 0.699371 0.544519
39 1 0.836628 0.518974 0.682002
292 2 0.786518 0.539863 0.57902
199 1 0.892866 0.715217 0.673907
268 1 0.782835 0.650341 0.598553
217 1 0.936179 0.567802 0.604063
282 1 0.197284 0.77301 0.742252
285 1 0.088275 0.838381 0.723059
98 1 0.161606 0.909109 0.631252
71 1 0.203804 0.760055 0.594688
19 1 0.0463831 0.933354 0.512575
322 2 0.221885 0.938675 0.540284
188 1 0.28136 0.86051 0.623175
165 1 0.340185 0.906993 0.514095
351 2 0.423792 0.950199 0.596538
309 2 0.296434 0.772886 0.717012
48 1 0.439122 0.820458 0.569757
345 2 0.546057 0.993193 0.562643
205 1 0.564117 0.895768 0.534773
40 1 0.745228 0.76629 0.731687
136 1 0.695818 0.834587 0.567944
183 1 0.631575 0.982725 0.667687
232 1 0.52863 0.869055 0.691266
152 1 0.61451 0.784492 0.724455
271 1 0.836706 0.901976 0.592936
189 1 0.797947 0.992572 0.69071
150 1 0.982003 0.959764 0.691618
27 1 0.809996 0.796574 0.515682
64 1 0.924355 0.995318 0.509648
107 1 0.880543 0.821005 0.741143
33 1 0.960796 0.822011 0.59416
102 1 0.0244521 0.209951 0.831382
99 1 0.00441304 0.14886 0.963579
83 1 0.129839 0.133835 0.888866
296 2 0.191701 0.0790668 0.993165
100 1 0.0440356 0.0386842 0.922799
151 1 0.271983 0.159551 0.757966
203 1 0.414614 0.140879 0.753961
334 2 0.469668 0.238188 0.904466
173 1 0.40257 0.0340347 0.851628
32 1 0.309842 0.149949 0.922906
69 1 0.250612 0.0555393 0.858926
204 1 0.681182 0.189135 0.983341
277 1 0.559526 0.21532 0.773693
195 1 0.552495 0.160962 0.953179
163 1 0.520123 0.0928609 0.813755
92 1 0.670885 0.01511 0.912932
321 2 0.524541 0.0375527 0.915922
288 1 0.637661 0.11142 0.786217
354 2 0.91902 0.195353 0.917513
66 1 0.83213 0.230455 0.987447
59 1 0.866938 0.0413345 0.924991
137 1 0.926519 0.0589863 0.765108
190 1 0.85559 0.175891 0.819235
90 1 0.0372371 0.49104 0.775632
311 2 0.218763 0.487169 0.843044
335 2 0.222656 0.295071 0.950247
131 1 0.053354 0.3376 0.826933
178 1 0.11799 0.273004 0.919103
177 1 0.164056 0.270967 0.781311
148 1 0.0998069 0.474605 0.93386
333 2 0.298334 0.26621 0.758539
206 1 0.414229 0.289748 0.794121
44 1 0.253503 0.433824 0.938681
245 1 0.258496 0.370271 0.814599
74 1 0.327493 0.273646 0.89332
43 1 0.326135 0.468434 0.772174
219 1 0.409291 0.441265 0.914966
273 1 0.332373 0.365576 0.999601
349 2 0.503364 0.358357 0.85931
23 1 0.628572 0.46045 0.776381
294 2 0.694262 0.379301 0.817184
16 1 0.626833 0.44684 0.902547
117 1 0.6058 0.27374 0.92339
153 1 0.533356 0.355514 0.756687
70 1 0.909851 0.29731 0.82312
308 2 0.982553 0.250986 0.992559
18 1 0.765751 0.363902 0.921941
158 1 0.901833 0.468777 0.853022
130 1 0.996107 0.368238 0.944577
180 1 0.761978 0.46661 0.820388
3 1 0.802177 0.496687 0.952669
306 2 0.0130739 0.690579 0.916245
207 1 0.0976214 0.606068 0.847866
125 1 0.0625607 0.726979 0.813137
278 1 0.156508 0.726615 0.915434
168 1 0.257383 0.680911 0.832578
279 1 0.412496 0.582924 0.919034
281 1 0.271654 0.565253 0.910094
226 1 0.287405 0.69566 0.966758
159 1 0.430837 0.671976 0.805347
146 1 0.569228 0.729036 0.869591
360 2 0.675458 0.54801 0.972561
115 1 0.539362 0.576525 0.931201
227 1 0.574049 0.582045 0.803978
297 2 0.659263 0.707831 0.78752
55 1 0.616726 0.707036 0.99719
110 1 0.954976 0.5872 0.785953
318 2 0.957607 0.507306 0.942525
65 1 0.753045 0.607588 0.882725
341 2 0.897594 0.600957 0.883504
253 1 0.841508 0.666477 0.799045
13 1 0.177831 0.974489 0.939728
86 1 0.0154395 0.97164 0.814431
41 1 0.143654 0.859665 0.847127
170 1 0.0558673 0.933554 0.999003
249 1 0.362218 0.772415 0.865206
147 1 0.264796 0.947712 0.778026
229 1 0.409634 0.885666 0.766425
293 2 0.458743 0.942208 0.869768
85 1 0.47999 0.804677 0.955348
246 1 0.300811 0.940058 0.957013
323 2 0.33105 0.810886 0.978652
239 1 0.627672 0.875863 0.855315
209 1 0.709177 0.838584 0.976836
211 1 0.722309 0.949928 0.802634
20 1 0.546637 0.917944 0.942079
329 2 0.503522 0.810644 0.846524
175 1 0.573645 0.976023 0.783821
73 1 0.868446 0.934557 0.784751
120 1 0.975723 0.796058 0.922019
355 2 0.918989 0.752397 0.823109
166 1 0.781271 0.821176 0.858053
358 2 0.768048 0.956823 0.912559
9 1 0.823728 0.762688 0.977093
11 1 0.865048 0.889077 0.952322
ITEM: TIMESTEP
10000
ITEM: NUMBER OF ATOMS
360
ITEM: BOX BOUNDS pp pp pp
0.0000000000000000e+00 6.6943295008216896e+00
0.0000000000000000e+00 6.6943295008216896e+00
0.0000000000000000e+00 6.6943295008216896e+00
ITEM: ATOMS id type xs ys zs
24 1 0.0546922 0.0667347 0.136017
337 2 0.172334 0.187586 0.171872
57 1 0.247872 0.0986071 0.131101
319 2 0.143145 0.0696866 0.0404764
21 1 0.0406797 0.220765 0.172275
273 1 0.148643 0.187945 0.0247535
296 2 0.0348075 0.15127 0.00814674
8 1 0.438714 0.138223 0.080952
15 1 0.281904 0.243396 0.085277
353 2 0.460127 0.00396177 0.0923542
123 1 0.415971 0.231576 0.18496
346 2 0.321484 0.146466 0.0108989
78 1 0.364565 0.0556124 0.226719
122 1 0.279696 0.19207 0.2484
25 1 0.563609 0.0859307 0.0448837
236 1 0.687433 0.055553 0.12431
144 1 0.644901 0.213103 0.083428
212 1 0.522255 0.0809253 0.184001
178 1 0.83632 0.147584 0.106923
307 2 0.811066 0.0284709 0.144879
112 1 0.929388 0.110598 0.227497
310 2 0.938423 0.0780487 0.0935794
97 1 0.191023 0.320904 0.203527
326 2 0.0604768 0.345212 0.16344
88 1 0.166529 0.369391 0.0565303
2 1 0.0257619 0.310399 0.0414659
208 1 0.0383474 0.483259 0.166452
339 2 0.148647 0.445978 0.183177
167 1 0.317732 0.391397 0.114789
302 2 0.313694 0.297434 0.200872
23 1 0.474084 0.364587 0.126805
301 2 0.414713 0.477281 0.149134
288 1 0.397264 0.276458 0.0043651
358 2 0.536452 0.261046 0.0836192
16 1 0.568338 0.26249 0.200302
117 1 0.739695 0.254674 0.187591
292 2 0.652891 0.339629 0.175387
93 1 0.663034 0.459108 0.15126
195 1 0.596234 0.367325 0.0489208
344 2 0.533509 0.495214 0.0637736
18 1 0.755765 0.364324 0.057287
65 1 0.830178 0.373822 0.240436
110 1 0.925293 0.432391 0.0719818
283 1 0.900446 0.289102 0.118503
287 1 0.167082 0.558605 0.115609
4 1 0.0322817 0.640904 0.115415
113 1 0.238639 0.699942 0.0545899
267 1 0.222152 0.54595 0.243518
71 1 0.174942 0.695823 0.184856
304 2 0.0657085 0.722882 0.227872
207 1 0.0606683 0.504614 0.0196124
280 1 0.404561 0.717739 0.0433888
240 1 0.313122 0.654419 0.174086
133 1 0.49324 0.611054 0.17158
115 1 0.450506 0.573522 0.0286892
160 1 0.323866 0.535798 0.0750422
194 1 0.604802 0.599562 0.0716317
146 1 0.557885 0.735563 0.00787859
61 1 0.679139 0.737618 0.159668
6 1 0.645199 0.623123 0.245559
34 1 0.760353 0.559487 0.109083
7 1 0.91153 0.576382 0.103734
225 1 0.932909 0.699976 0.228837
105 1 0.901213 0.509523 0.247048
40 1 0.83094 0.698213 0.0839156
82 1 0.104891 0.776731 0.0508726
284 1 0.14118 0.969058 0.221979
156 1 0.0785498 0.912089 0.111421
62 1 0.199268 0.82898 0.198222
17 1 0.465649 0.862594 0.0588935
143 1 0.258867 0.935994 0.125849
357 2 0.276549 0.80857 0.0850317
171 1 0.456375 0.928419 0.215962
222 1 0.353429 0.803204 0.184669
303 2 0.580072 0.817606 0.0941267
241 1 0.517529 0.767834 0.190019
55 1 0.605797 0.93553 0.119648
111 1 0.894823 0.966274 0.0357759
181 1 0.840911 0.825892 0.0480127
116 1 0.94048 0.953937 0.185315
266 1 0.962557 0.796204 0.110597
274 1 0.817285 0.794987 0.20056
37 1 0.770959 0.919069 0.123934
139 1 0.116213 0.110851 0.280334
68 1 0.0949803 0.0474998 0.473819
76 1 0.137399 0.183293 0.439181
322 2 0.239816 0.0629584 0.25657
96 1 0.000195225 0.140613 0.39715
305 2 0.214083 0.166019 0.346607
98 1 0.306489 0.0811586 0.357819
193 1 0.419434 0.167117 0.343148
157 1 0.430802 0.00180997 0.357078
104 1 0.309151 0.240419 0.454459
56 1 0.496988 0.209949 0.48051
140 1 0.250072 0.0868657 0.497801
79 1 0.646487 0.162993 0.270386
316 2 0.510111 0.175776 0.264242
54 1 0.640989 0.193915 0.430721
174 1 0.707371 0.0711277 0.380287
258 1 0.558533 0.073814 0.363087
106 1 0.797736 0.139285 0.252206
247 1 0.823048 0.174274 0.408199
22 1 0.907989 0.0312509 0.362008
210 1 0.878041 0.243842 0.293982
121 1 0.0744281 0.260861 0.322748
259 1 0.133836 0.421098 0.293947
340 2 0.0688829 0.290728 0.451821
252 1 0.215614 0.305255 0.360736
264 1 0.199296 0.489324 0.416572
31 1 0.0245653 0.466505 0.382311
141 1 0.30368 0.411607 0.277993
74 1 0.477473 0.400383 0.269935
118 1 0.350491 0.386658 0.465245
295 2 0.392817 0.457766 0.341738
233 1 0.495493 0.428115 0.416358
80 1 0.362263 0.298653 0.332369
67 1 0.71857 0.309084 0.333841
198 1 0.732768 0.445777 0.424432
214 1 0.627463 0.342599 0.440692
142 1 0.538048 0.293111 0.348988
263 1 0.623105 0.424722 0.307825
103 1 0.749434 0.493021 0.264209
265 1 0.987784 0.366257 0.267772
350 2 0.93554 0.477146 0.490407
256 1 0.943954 0.279016 0.419773
235 1 0.88049 0.405615 0.378392
138 1 0.789356 0.30821 0.470209
91 1 0.189204 0.745608 0.471434
12 1 0.156193 0.743631 0.318312
185 1 0.238326 0.629908 0.357778
51 1 0.105304 0.604031 0.436527
127 1 0.0134388 0.705924 0.351103
187 1 0.0778324 0.597834 0.284548
343 2 0.292044 0.735588 0.269858
261 1 0.367617 0.704803 0.458223
108 1 0.385636 0.534074 0.250438
234 1 0.350737 0.553375 0.398939
47 1 0.412725 0.70349 0.298053
275 1 0.652682 0.652355 0.49407
272 1 0.525694 0.545329 0.299659
164 1 0.511443 0.599454 0.429724
218 1 0.560213 0.719982 0.333401
161 1 0.708464 0.707258 0.370947
45 1 0.644498 0.553992 0.374088
109 1 0.957978 0.583569 0.456275
87 1 0.861014 0.696066 0.409819
197 1 0.802516 0.640201 0.286013
72 1 0.826826 0.547652 0.38019
355 2 0.945276 0.59443 0.329945
124 1 0.0441683 0.99612 0.328467
248 1 0.201032 0.966844 0.398988
52 1 0.0775645 0.845572 0.389511
81 1 0.0347039 0.836385 0.25118
332 2 0.231759 0.848489 0.437174
250 1 0.315902 0.808533 0.358585
184 1 0.341215 0.925674 0.439863
46 1 0.455424 0.842971 0.342338
129 1 0.287712 0.938262 0.281792
84 1 0.632421 0.988637 0.251217
136 1 0.667209 0.95368 0.484757
317 2 0.707669 0.939717 0.363003
63 1 0.646442 0.824772 0.430755
188 1 0.508882 0.919615 0.468414
309 2 0.542924 0.935925 0.322298
95 1 0.635264 0.846007 0.267415
19 1 0.825152 0.947516 0.471022
14 1 0.805884 0.976857 0.266568
10 1 0.785611 0.830955 0.359709
75 1 0.943574 0.895627 0.367569
328 2 0.915695 0.773454 0.320998
262 1 0.977907 0.974628 0.4921
151 1 0.142063 0.0872379 0.607627
102 1 0.188762 0.00691772 0.729168
331 2 0.0590675 0.15927 0.657386
335 2 0.20473 0.208597 0.540214
260 1 0.028766 0.191799 0.533052
165 1 0.321061 0.0242908 0.637278
58 1 0.27632 0.161171 0.642595
312 2 0.36484 0.144432 0.721515
183 1 0.480052 0.00595563 0.616352
114 1 0.416366 0.179331 0.619505
321 2 0.418789 0.0329065 0.711527
205 1 0.412857 0.0658287 0.507039
216 1 0.602108 0.0820191 0.534342
291 2 0.521131 0.117393 0.645959
149 1 0.749042 0.193978 0.551052
64 1 0.65738 0.115055 0.674461
223 1 0.606772 0.233146 0.578383
163 1 0.556439 0.0300486 0.744952
348 2 0.74278 0.0707354 0.500949
320 2 0.899297 0.237796 0.526268
257 1 0.828667 0.156207 0.67883
137 1 0.760976 0.0416896 0.617251
150 1 0.959168 0.223773 0.712702
73 1 0.971224 0.0711416 0.681375
191 1 0.881684 0.0988779 0.541411
359 2 0.998196 0.0792711 0.562443
177 1 0.0964697 0.276439 0.643029
325 2 0.216605 0.270729 0.696139
203 1 0.208341 0.393565 0.659668
77 1 0.0911517 0.480201 0.527817
290 2 0.24135 0.450871 0.538952
217 1 0.0481329 0.441515 0.670475
50 1 0.176589 0.333043 0.506048
5 1 0.326574 0.309552 0.59448
333 2 0.418153 0.375467 0.639933
237 1 0.35751 0.277459 0.744127
38 1 0.326016 0.481765 0.642213
230 1 0.455358 0.495091 0.577636
119 1 0.508229 0.341532 0.566903
255 1 0.719334 0.259946 0.706173
128 1 0.519128 0.289464 0.711774
242 1 0.571211 0.456395 0.660262
243 1 0.680588 0.36063 0.591057
26 1 0.741748 0.417169 0.717084
286 1 0.597523 0.468264 0.51835
245 1 0.996226 0.371391 0.521247
176 1 0.84921 0.304471 0.625184
179 1 0.892661 0.460424 0.614496
311 2 0.96476 0.339374 0.687506
356 2 0.781946 0.428503 0.556977
201 1 0.128846 0.62325 0.578902
277 1 0.177982 0.52991 0.699438
285 1 0.174151 0.692013 0.704118
282 1 0.0228079 0.627285 0.686564
336 2 0.203254 0.736975 0.586405
86 1 0.0480461 0.736928 0.509228
313 2 0.25887 0.606291 0.640615
270 1 0.409051 0.621802 0.703708
182 1 0.428016 0.640226 0.561143
147 1 0.319675 0.731499 0.654011
324 2 0.36096 0.533247 0.512485
276 1 0.263392 0.611805 0.514541
35 1 0.684082 0.551419 0.615474
85 1 0.604931 0.564462 0.746218
186 1 0.561551 0.642283 0.618219
159 1 0.748475 0.693258 0.659149
126 1 0.802341 0.56898 0.537204
268 1 0.843874 0.587838 0.689688
244 1 0.916702 0.669264 0.559666
342 2 0.973095 0.562539 0.585474
49 1 0.0663205 0.966573 0.63481
215 1 0.00932446 0.768307 0.742236
196 1 0.14517 0.895744 0.514051
100 1 0.174265 0.858729 0.668375
199 1 0.0170123 0.829857 0.613235
220 1 0.275656 0.836362 0.551577
281 1 0.47841 0.752546 0.658149
238 1 0.41654 0.866402 0.584945
69 1 0.325558 0.882922 0.713491
211 1 0.632325 0.810538 0.731906
48 1 0.500071 0.891749 0.704617
345 2 0.548051 0.8605 0.590261
60 1 0.628313 0.965657 0.626894
152 1 0.646029 0.763738 0.599431
169 1 0.514792 0.761665 0.506615
228 1 0.884718 0.955971 0.634667
27 1 0.756073 0.885317 0.606104
107 1 0.980997 0.91348 0.747755
132 1 0.863982 0.788112 0.645577
314 2 0.766589 0.810527 0.72349
30 1 0.771716 0.767793 0.512543
200 1 0.928192 0.831336 0.5137
172 1 0.0981333 0.168393 0.779126
330 2 0.0726331 0.0319709 0.758368
135 1 0.23985 0.198796 0.791579
315 2 0.0351632 0.110494 0.883749
101 1 0.155376 0.101624 0.903336
44 1 0.0626465 0.244346 0.901369
53 1 0.416567 0.0711251 0.948659
249 1 0.345874 0.193558 0.885133
70 1 0.477994 0.154168 0.752358
32 1 0.344843 0.0560495 0.821374
246 1 0.265779 0.0366314 0.992403
299 2 0.605278 0.136285 0.771861
190 1 0.620828 0.249816 0.828185
20 1 0.551571 0.236907 0.959735
92 1 0.547352 0.0871413 0.882726
354 2 0.679884 0.0600012 0.863151
158 1 0.740082 0.140353 0.792222
204 1 0.678889 0.165973 0.933505
300 2 0.647044 0.0196349 0.978731
145 1 0.917878 0.0955572 0.969335
269 1 0.934777 0.171309 0.839639
99 1 0.834481 0.0522768 0.845759
130 1 0.805024 0.249681 0.985632
298 2 0.804983 0.229602 0.854615
318 2 0.928003 0.220695 0.992837
59 1 0.770425 0.0595824 0.997321
173 1 0.153263 0.324475 0.794483
131 1 0.00982191 0.362037 0.799835
334 2 0.157298 0.455147 0.778118
90 1 0.12202 0.41375 0.903028
192 1 0.217044 0.271455 0.927087
29 1 0.443702 0.416533 0.752962
229 1 0.278457 0.422079 0.790147
351 2 0.370159 0.36918 0.86123
202 1 0.2676 0.436127 0.968583
153 1 0.407189 0.417015 0.995491
154 1 0.482196 0.323214 0.854938
294 2 0.506445 0.359997 0.968506
36 1 0.634206 0.370815 0.884085
89 1 0.536447 0.475251 0.93331
327 2 0.67519 0.306466 0.977144
308 2 0.572559 0.43764 0.788666
94 1 0.683661 0.491027 0.987336
66 1 0.792358 0.400018 0.893433
125 1 0.847755 0.31225 0.772807
42 1 0.915032 0.314887 0.910676
3 1 0.873 0.456995 0.771354
148 1 0.967702 0.453632 0.903568
180 1 0.0455222 0.518961 0.787097
1 1 0.189494 0.545609 0.877206
289 2 0.203995 0.694439 0.933762
360 2 0.0176305 0.581558 0.927735
9 1 0.0840216 0.664194 0.82162
231 1 0.109387 0.631778 0.975613
349 2 0.201616 0.545607 0.989317
219 1 0.384259 0.517797 0.867348
43 1 0.284169 0.664454 0.807196
206 1 0.298219 0.611941 0.95052
168 1 0.434403 0.671783 0.893617
347 2 0.501566 0.567597 0.833119
279 1 0.538351 0.692947 0.782371
227 1 0.699284 0.686493 0.986765
224 1 0.589039 0.604299 0.923071
39 1 0.730147 0.524678 0.830624
175 1 0.695176 0.683378 0.821055
221 1 0.849837 0.721625 0.778009
254 1 0.964624 0.680586 0.991033
209 1 0.82131 0.549935 0.941906
341 2 0.802628 0.621034 0.826441
297 2 0.946722 0.746573 0.852588
239 1 0.822283 0.704514 0.926948
253 1 0.933763 0.607058 0.82842
13 1 0.169766 0.895905 0.989105
213 1 0.0418068 0.983243 0.975112
306 2 0.0947136 0.81541 0.799986
83 1 0.238061 0.975551 0.864289
166 1 0.0931248 0.92958 0.837642
120 1 0.219196 0.806951 0.812656
170 1 0.0526292 0.778172 0.907107
338 2 0.0310133 0.856976 0.99134
226 1 0.463574 0.964703 0.840221
41 1 0.34569 0.916624 0.974149
251 1 0.310511 0.77075 0.947055
293 2 0.35937 0.88629 0.832558
232 1 0.393174 0.775829 0.790401
28 1 0.457148 0.824473 0.915291
278 1 0.601486 0.789396 0.873789
134 1 0.625253 0.943769 0.866031
189 1 0.729486 0.963559 0.758147
162 1 0.500988 0.965641 0.985852
323 2 0.705265 0.855494 0.82542
329 2 0.514589 0.819275 0.803577
11 1 0.673067 0.858705 0.999351
33 1 0.852942 0.871995 0.795174
271 1 0.774875 0.9192 0.920235
352 2 0.840156 0.814066 0.925696
155 1 0.935464 0.962527 0.894764
