ITEM: TIMESTEP
0
ITEM: NUMBER OF ATOMS
360
ITEM: BOX BOUNDS pp pp pp
0.0000000000000000e+00 6.6943295008216896e+00
0.0000000000000000e+00 6.6943295008216896e+00
0.0000000000000000e+00 6.6943295008216896e+00
ITEM: ATOMS id type xs ys zs
125 1 0.160765 0.182786 0.0875909
262 1 0.0978212 0.0503666 0.211086
267 1 0.0322691 0.177541 0.191928
21 1 0.0746093 0.0800669 0.0255863
204 1 0.225619 0.0207527 0.120541
283 1 0.172263 0.210617 0.238689
339 2 0.339454 0.0524818 0.0747585
178 1 0.299623 0.155226 0.179409
273 1 0.448573 0.13664 0.150636
34 1 0.314329 0.160902 0.0125285
139 1 0.3609 0.00273095 0.190582
219 1 0.452324 0.239692 0.00901421
122 1 0.447775 0.0691497 0.00294023
251 1 0.602144 0.0933393 0.193347
16 1 0.578814 0.246663 0.218079
106 1 0.702185 0.0741845 0.0821868
255 1 0.724065 0.186719 0.218898
195 1 0.576257 0.153365 0.039611
188 1 0.594503 0.00851075 0.00492557
303 2 0.820357 0.106262 0.150721
225 1 0.780284 0.22745 0.0837758
95 1 0.860886 0.0200349 0.0767936
252 1 0.924704 0.157009 0.0813696
145 1 0.912613 0.0696928 0.229296
338 2 0.996598 0.0668002 0.128754
187 1 0.864403 0.216923 0.211647
337 2 0.211538 0.305738 0.140345
276 1 0.0951397 0.32895 0.136476
240 1 0.244976 0.426363 0.127241
88 1 0.022822 0.277762 0.000925561
340 2 0.117833 0.47661 0.148889
94 1 0.0320407 0.44696 0.0564686
2 1 0.16804 0.363911 0.00362401
151 1 0.416026 0.258903 0.238938
207 1 0.323808 0.288148 0.0946279
85 1 0.397227 0.395146 0.177189
305 2 0.473149 0.277661 0.136172
135 1 0.387909 0.392099 0.0130365
3 1 0.502358 0.470749 0.0703546
79 1 0.682251 0.351398 0.181822
121 1 0.541347 0.386022 0.219809
40 1 0.646307 0.499996 0.235814
190 1 0.58218 0.336646 0.0416543
282 1 0.993996 0.408433 0.214343
20 1 0.758761 0.36939 0.0415876
117 1 0.91085 0.321316 0.111604
81 1 0.888893 0.492126 0.130141
110 1 0.827679 0.379942 0.239779
356 2 0.891779 0.408331 0.0205433
12 1 0.0140815 0.576482 0.123242
287 1 0.20924 0.560202 0.1822
266 1 0.0892136 0.728915 0.0465884
296 2 0.0963802 0.675621 0.195894
328 2 0.13642 0.619761 0.0837567
222 1 0.228338 0.712761 0.221674
148 1 0.207171 0.525018 0.0236715
89 1 0.427256 0.656999 0.0212728
9 1 0.260662 0.676845 0.0613228
181 1 0.364625 0.548354 0.127365
311 2 0.475498 0.670053 0.237191
275 1 0.379013 0.732626 0.165996
105 1 0.498072 0.537401 0.200747
209 1 0.737974 0.51705 0.107474
173 1 0.638038 0.604972 0.0151037
93 1 0.544538 0.690481 0.111473
354 2 0.621954 0.554417 0.121283
174 1 0.705203 0.658341 0.148799
227 1 0.706582 0.738665 0.00705618
4 1 0.929587 0.701336 0.112298
344 2 0.785842 0.502488 0.215236
61 1 0.842568 0.616276 0.184886
197 1 0.792996 0.610668 0.00657595
8 1 0.113263 0.92591 0.119206
289 2 0.153366 0.797889 0.155312
71 1 0.0327573 0.79657 0.163956
318 2 0.16742 0.93684 0.230965
302 2 0.467477 0.874327 0.24996
357 2 0.344101 0.762689 0.0481443
116 1 0.272581 0.847814 0.162217
351 2 0.49739 0.918083 0.00990644
1 1 0.422485 0.862444 0.139582
90 1 0.339894 0.94395 0.0057456
78 1 0.518717 0.992276 0.123211
143 1 0.570198 0.84778 0.101637
316 2 0.661097 0.95616 0.134082
14 1 0.547649 0.771716 0.244119
42 1 0.681083 0.803008 0.193672
92 1 0.711792 0.872678 0.0575458
111 1 0.991806 0.826991 0.013879
347 2 0.80421 0.751993 0.102592
265 1 0.774037 0.939797 0.21011
127 1 0.984696 0.938144 0.198919
310 2 0.97556 0.927802 0.0776184
37 1 0.869243 0.865501 0.107018
280 1 0.822856 0.770277 0.235554
59 1 0.0903595 0.114923 0.35444
76 1 0.0155648 0.238257 0.453488
57 1 0.228449 0.0634731 0.290302
98 1 0.231228 0.123995 0.442824
140 1 0.162347 0.247841 0.394987
169 1 0.106442 0.0651643 0.496008
345 2 0.388005 0.0931578 0.284288
49 1 0.374654 0.087479 0.414669
234 1 0.494867 0.139599 0.332198
263 1 0.302317 0.204687 0.335245
120 1 0.445538 0.212995 0.477904
165 1 0.474755 0.000863243 0.266682
312 2 0.48103 0.0188099 0.383463
84 1 0.546231 0.107506 0.478409
31 1 0.740917 0.0574641 0.319672
67 1 0.639253 0.181199 0.345954
53 1 0.690791 0.0747666 0.463234
260 1 0.893887 0.175709 0.488563
299 2 0.992461 0.092137 0.439261
130 1 0.78267 0.188228 0.388717
104 1 0.936333 0.163399 0.33225
149 1 0.875392 0.0464313 0.419642
294 2 0.206798 0.40256 0.391342
96 1 0.0339397 0.275371 0.304299
13 1 0.132764 0.402452 0.289156
324 2 0.0852163 0.346657 0.4083
194 1 0.0650802 0.477506 0.431124
112 1 0.271596 0.334588 0.255634
198 1 0.375513 0.336215 0.368369
74 1 0.300475 0.476978 0.264887
202 1 0.4484 0.458791 0.313524
91 1 0.342176 0.469633 0.428055
64 1 0.586357 0.25568 0.47109
65 1 0.515687 0.277553 0.346677
342 2 0.668652 0.351748 0.474785
109 1 0.513547 0.397612 0.43323
114 1 0.645216 0.357768 0.333414
231 1 0.965427 0.378315 0.385182
335 2 0.755763 0.286513 0.279605
290 2 0.905637 0.267859 0.395357
66 1 0.782746 0.347333 0.391163
259 1 0.769861 0.494312 0.348477
233 1 0.0805995 0.580077 0.273861
297 2 0.0331925 0.725313 0.462199
309 2 0.234864 0.606154 0.313215
75 1 0.216223 0.549558 0.425969
230 1 0.10088 0.624447 0.490896
62 1 0.138662 0.68681 0.362292
218 1 0.458727 0.708092 0.364042
113 1 0.283484 0.693308 0.411345
350 2 0.359208 0.589676 0.411803
272 1 0.364874 0.624803 0.279021
242 1 0.484762 0.567362 0.414254
358 2 0.557177 0.512665 0.334825
214 1 0.645807 0.506186 0.439517
126 1 0.593448 0.634072 0.264329
161 1 0.733262 0.663943 0.304915
45 1 0.624391 0.652614 0.402892
77 1 0.920175 0.505963 0.479522
331 2 0.758925 0.608865 0.414431
250 1 0.97219 0.687269 0.260775
52 1 0.916962 0.520031 0.307657
349 2 0.860147 0.675168 0.315274
235 1 0.976936 0.634451 0.398062
200 1 0.0474508 0.881116 0.468673
261 1 0.180265 0.963611 0.388658
157 1 0.0710351 0.838854 0.305257
17 1 0.218375 0.837817 0.307783
191 1 0.212398 0.826873 0.459694
10 1 0.00223081 0.986994 0.355363
185 1 0.361355 0.840226 0.449643
193 1 0.362662 0.808069 0.291622
129 1 0.330933 0.951625 0.337356
27 1 0.468317 0.946313 0.479697
220 1 0.611473 0.942402 0.255703
54 1 0.512145 0.852529 0.370943
301 2 0.589615 0.761912 0.430448
142 1 0.603536 0.985145 0.402226
146 1 0.661553 0.824545 0.349609
307 2 0.724635 0.928151 0.326527
253 1 0.790066 0.777896 0.410107
291 2 0.88517 0.913569 0.471838
317 2 0.938176 0.839923 0.267497
6 1 0.758256 0.935111 0.44219
245 1 0.94203 0.782484 0.382683
236 1 0.865486 0.902344 0.325619
5 1 0.144307 0.208634 0.551996
325 2 0.0926218 0.224346 0.675496
32 1 0.124009 0.0978141 0.675701
172 1 0.230672 0.0796623 0.583419
199 1 0.0100682 0.142676 0.588136
101 1 0.21466 0.224264 0.705211
68 1 0.325678 0.123696 0.701113
237 1 0.396791 0.0684742 0.56256
80 1 0.319963 0.223783 0.553493
348 2 0.498634 0.0772441 0.668671
36 1 0.44725 0.206631 0.647901
60 1 0.609224 0.155262 0.609216
163 1 0.612157 0.0498422 0.741045
300 2 0.694192 0.0276226 0.640045
137 1 0.551566 0.177665 0.746426
150 1 0.728029 0.133176 0.702642
63 1 0.576129 0.000303806 0.58998
257 1 0.735578 0.209027 0.530737
24 1 0.987351 0.160073 0.742041
73 1 0.861254 0.196656 0.649336
158 1 0.893766 0.051425 0.702589
247 1 0.805182 0.0612349 0.565488
277 1 0.139757 0.359631 0.666475
138 1 0.221461 0.339786 0.51292
164 1 0.0459288 0.492828 0.610627
229 1 0.193331 0.478847 0.557621
239 1 0.0481613 0.369242 0.537791
295 2 0.284626 0.339163 0.617401
29 1 0.417589 0.423226 0.66401
136 1 0.48358 0.494429 0.546703
224 1 0.277908 0.449377 0.702902
144 1 0.337473 0.297676 0.732669
216 1 0.374941 0.365247 0.527391
256 1 0.509448 0.327372 0.591024
313 2 0.570492 0.399825 0.688829
154 1 0.696525 0.457864 0.707463
286 1 0.629163 0.415539 0.5761
223 1 0.64215 0.280565 0.668591
44 1 0.985207 0.286965 0.655657
33 1 0.785755 0.337618 0.651664
179 1 0.897904 0.434801 0.623843
254 1 0.997421 0.415264 0.741867
217 1 0.779204 0.458375 0.544735
56 1 0.874924 0.313964 0.52716
264 1 0.0574014 0.624562 0.699101
47 1 0.214729 0.593196 0.67563
352 2 0.157388 0.712308 0.677829
270 1 0.328558 0.547888 0.57602
238 1 0.448064 0.6562 0.657237
329 2 0.329861 0.685101 0.674224
334 2 0.371877 0.53909 0.693671
103 1 0.398826 0.661781 0.509406
108 1 0.256379 0.690342 0.561478
133 1 0.572442 0.558978 0.683856
279 1 0.687161 0.656182 0.695085
243 1 0.546483 0.644437 0.524474
128 1 0.675045 0.559416 0.575134
221 1 0.661649 0.743152 0.551432
322 2 0.850159 0.55399 0.609093
320 2 0.767995 0.687265 0.613403
210 1 0.977986 0.644028 0.57504
50 1 0.857903 0.669911 0.682246
30 1 0.928062 0.545756 0.717129
72 1 0.820805 0.655411 0.508576
248 1 0.0322556 0.991483 0.674189
156 1 0.0880446 0.762876 0.576316
107 1 0.106809 0.875054 0.727173
184 1 0.148829 0.946929 0.590999
196 1 0.218273 0.821693 0.625453
319 2 0.0329568 0.882344 0.599961
100 1 0.398753 0.923841 0.646782
48 1 0.290639 0.962425 0.517786
170 1 0.381059 0.784856 0.606287
83 1 0.258107 0.959052 0.699091
330 2 0.306226 0.83037 0.715165
46 1 0.494029 0.784956 0.505612
281 1 0.548349 0.755778 0.659786
147 1 0.640163 0.880402 0.664013
314 2 0.507042 0.866862 0.620734
241 1 0.517847 0.92851 0.742541
258 1 0.625519 0.880674 0.507549
211 1 0.977659 0.774922 0.686984
58 1 0.961797 0.985043 0.529593
278 1 0.780898 0.797971 0.689517
87 1 0.782323 0.83882 0.544478
152 1 0.77138 0.94822 0.691297
132 1 0.908901 0.896237 0.629982
284 1 0.919364 0.778809 0.528732
359 2 0.973045 0.8868 0.746555
208 1 0.150684 0.207902 0.938674
315 2 0.214505 0.0893088 0.762402
123 1 0.109063 0.117972 0.835752
86 1 0.0138456 0.00985861 0.829653
162 1 0.211244 0.0590479 0.957394
232 1 0.438844 0.0578929 0.777639
205 1 0.268496 0.177303 0.841301
226 1 0.324191 0.0215858 0.852733
55 1 0.413251 0.15707 0.890771
332 2 0.431577 0.202412 0.77082
212 1 0.569154 0.0710026 0.875602
292 2 0.686536 0.0500164 0.920782
70 1 0.689675 0.158301 0.853107
249 1 0.548035 0.247996 0.888953
353 2 0.688307 0.167286 0.978534
228 1 0.763801 0.0355214 0.821914
134 1 0.802283 0.122661 0.960435
298 2 0.962525 0.24579 0.880557
326 2 0.887453 0.0434476 0.876535
155 1 0.971134 0.132026 0.932745
271 1 0.843795 0.154084 0.811353
168 1 0.128187 0.493275 0.766217
321 2 0.0827874 0.324709 0.904845
141 1 0.0610249 0.29023 0.786831
203 1 0.205647 0.342912 0.816929
102 1 0.0665165 0.448263 0.908699
246 1 0.233118 0.480039 0.870646
306 2 0.271875 0.408583 0.968316
308 2 0.441439 0.27845 0.883364
166 1 0.328979 0.285525 0.92526
186 1 0.357949 0.402009 0.840392
15 1 0.481308 0.329083 0.767747
288 1 0.612072 0.377215 0.810002
167 1 0.645508 0.451873 0.963706
323 2 0.722898 0.432688 0.83331
153 1 0.500646 0.400547 0.900961
99 1 0.745887 0.292988 0.794618
177 1 0.689959 0.283732 0.93635
97 1 0.899999 0.291783 0.782639
18 1 0.842139 0.267774 0.935116
35 1 0.842322 0.427688 0.804529
192 1 0.938993 0.374379 0.907811
269 1 0.792705 0.467715 0.945646
118 1 0.0687738 0.590976 0.983499
343 2 0.188005 0.591229 0.80169
244 1 0.170449 0.693647 0.925749
82 1 0.243212 0.72861 0.75318
124 1 0.0826557 0.735336 0.790597
22 1 0.00738911 0.564315 0.839933
119 1 0.40427 0.745631 0.762907
355 2 0.251044 0.601673 0.927253
346 2 0.436678 0.602058 0.860416
201 1 0.331674 0.716858 0.916934
39 1 0.324665 0.610921 0.798161
23 1 0.365708 0.523152 0.935531
285 1 0.468923 0.505673 0.784617
115 1 0.536283 0.654333 0.804287
183 1 0.560725 0.718653 0.94529
176 1 0.637407 0.526775 0.828245
160 1 0.52181 0.546928 0.929031
175 1 0.695517 0.66311 0.864664
7 1 0.999192 0.711156 0.92761
180 1 0.788834 0.568213 0.755398
215 1 0.859839 0.741737 0.977385
333 2 0.90964 0.500583 0.88472
293 2 0.782294 0.704718 0.792349
341 2 0.951595 0.675038 0.775371
268 1 0.868127 0.631819 0.869748
26 1 0.916989 0.543635 0.99934
336 2 0.108849 0.797242 0.946369
182 1 0.0253913 0.847043 0.861733
213 1 0.170525 0.981668 0.819454
38 1 0.171057 0.833289 0.849055
360 2 0.236385 0.930486 0.92445
25 1 0.0993208 0.932523 0.951073
131 1 0.215542 0.835894 0.998966
327 2 0.379397 0.952367 0.767134
69 1 0.340408 0.855684 0.854033
41 1 0.455262 0.954461 0.897447
206 1 0.436817 0.811593 0.975202
11 1 0.656455 0.924635 0.826409
28 1 0.605254 0.86254 0.959936
171 1 0.745725 0.807426 0.876359
43 1 0.641615 0.777404 0.77111
159 1 0.51134 0.806214 0.83566
19 1 0.878017 0.930519 0.821394
51 1 0.943416 0.972316 0.962855
304 2 0.861334 0.853822 0.923139
274 1 0.889936 0.775711 0.817404
189 1 0.796355 0.949135 0.946229
ITEM: TIMESTEP
50000
ITEM: NUMBER OF ATOMS
360
ITEM: BOX BOUNDS pp pp pp
0.0000000000000000e+00 6.6943295008216896e+00
0.0000000000000000e+00 6.6943295008216896e+00
0.0000000000000000e+00 6.6943295008216896e+00
ITEM: ATOMS id type xs ys zs
95 1 0.183434 0.0696053 0.215892
18 1 0.0328008 0.107805 0.295261
297 2 0.184864 0.981996 0.11394
262 1 0.142411 0.223543 0.252699
250 1 0.276097 0.040847 0.494662
155 1 0.0419497 0.101045 0.142444
213 1 0.0302878 0.0424868 0.00352201
328 2 0.15599 0.173277 0.135755
104 1 0.801069 0.0139857 0.42053
125 1 0.450505 0.1869 0.0069486
161 1 0.472629 0.0288964 0.130024
318 2 0.384299 0.0832159 0.0657808
151 1 0.427488 0.178995 0.162317
112 1 0.282155 0.163641 0.107796
91 1 0.276997 0.602139 0.00401813
357 2 0.568835 0.191086 0.161273
265 1 0.743635 0.0037031 0.0443373
310 2 0.633411 0.983541 0.124552
219 1 0.58876 0.127567 0.0428182
134 1 0.598947 0.0706162 0.213121
187 1 0.650543 0.20216 0.275099
228 1 0.813243 0.145399 0.0169616
145 1 0.909194 0.169793 0.148312
289 2 0.815601 0.247013 0.0938049
321 2 0.804725 0.987857 0.183628
197 1 0.734861 0.111665 0.156457
303 2 0.926282 0.343287 0.233166
94 1 0.070973 0.258309 0.0740163
280 1 0.944364 0.96797 0.238792
302 2 0.71562 0.296952 0.485943
181 1 0.110158 0.466668 0.20921
88 1 0.164976 0.345107 0.156044
99 1 0.214383 0.458267 0.063599
9 1 0.0381596 0.41192 0.0622186
259 1 0.0295394 0.30657 0.203744
136 1 0.651583 0.549959 0.456984
235 1 0.896743 0.872613 0.457526
89 1 0.375263 0.30114 0.0794084
102 1 0.432911 0.39296 0.189164
229 1 0.45749 0.822571 0.279126
198 1 0.283652 0.471379 0.207104
85 1 0.528868 0.300542 0.116395
269 1 0.642646 0.36673 0.0320161
227 1 0.774912 0.377756 0.101727
225 1 0.668616 0.239015 0.110105
114 1 0.679242 0.485964 0.148999
327 2 0.639735 0.955043 0.262043
97 1 0.911648 0.32024 0.0962214
276 1 0.956564 0.475496 0.268851
287 1 0.99329 0.551424 0.104844
231 1 0.174398 0.591572 0.149892
347 2 0.106827 0.671135 0.0860797
74 1 0.163881 0.770839 0.164479
12 1 0.0124996 0.69383 0.179842
147 1 0.00569628 0.665649 0.0162391
360 2 0.083145 0.156409 0.0115249
62 1 0.295779 0.746203 0.0779822
13 1 0.364042 0.443777 0.0554243
293 2 0.45767 0.573075 0.0622257
109 1 0.355757 0.614893 0.151361
238 1 0.465977 0.540444 0.223863
332 2 0.299224 0.72889 0.196995
1 1 0.372108 0.8957 0.42501
129 1 0.532633 0.885336 0.411204
305 2 0.545175 0.438703 0.202327
105 1 0.562173 0.613298 0.121069
93 1 0.531041 0.458341 0.0718379
354 2 0.650853 0.620285 0.223451
215 1 0.910023 0.775953 0.028633
148 1 0.858691 0.498707 0.151901
344 2 0.886234 0.646471 0.110522
171 1 0.755227 0.619848 0.123735
92 1 0.634268 0.891146 0.03817
169 1 0.263593 0.345957 0.484993
261 1 0.0742588 0.946098 0.148238
71 1 0.042925 0.813368 0.0837163
138 1 0.222002 0.899651 0.197628
272 1 0.164131 0.898693 0.033849
149 1 0.0473434 0.821519 0.250333
111 1 0.327167 0.00892571 0.209847
34 1 0.304451 0.98843 0.054482
116 1 0.380066 0.87496 0.151174
131 1 0.463178 0.888992 0.0196539
143 1 0.456928 0.741159 0.155794
142 1 0.633039 0.741286 0.141412
78 1 0.540428 0.867788 0.162352
309 2 0.536059 0.726663 0.0611226
220 1 0.723008 0.877945 0.196297
42 1 0.761962 0.71774 0.238024
61 1 0.868104 0.822149 0.179512
28 1 0.762346 0.788042 0.0725097
296 2 0.957386 0.904353 0.127267
51 1 0.908621 0.0184441 0.100423
260 1 0.0496299 0.111916 0.475566
80 1 0.183021 0.0940164 0.378838
315 2 0.226328 0.253098 0.348295
295 2 0.0625597 0.200072 0.365789
239 1 0.152323 0.226108 0.465072
54 1 0.423824 0.759976 0.479948
311 2 0.237611 0.289693 0.0732304
157 1 0.30612 0.190978 0.480892
49 1 0.3207 0.151575 0.288706
120 1 0.369966 0.296723 0.38107
90 1 0.483133 0.113921 0.285288
195 1 0.391134 0.0395283 0.372357
17 1 0.471237 0.185326 0.407911
6 1 0.571737 0.0392312 0.375581
66 1 0.664978 0.162005 0.4157
165 1 0.735137 0.0453891 0.283531
282 1 0.281038 0.808332 0.323099
139 1 0.684102 0.913671 0.37415
178 1 0.933162 0.228748 0.297315
236 1 0.872444 0.0901596 0.293377
329 2 0.773324 0.125896 0.474066
338 2 0.941141 0.125494 0.39271
57 1 0.963741 0.998995 0.394613
81 1 0.823843 0.219758 0.416455
216 1 0.0685178 0.33137 0.344636
237 1 0.0998286 0.46187 0.372531
358 2 0.151081 0.370732 0.435652
193 1 0.225744 0.393529 0.328818
31 1 0.898234 0.749787 0.31241
65 1 0.496314 0.259644 0.279477
294 2 0.346809 0.404637 0.296015
234 1 0.311718 0.299194 0.233554
330 2 0.459029 0.999475 0.462264
286 1 0.380156 0.436869 0.432512
252 1 0.630089 0.355337 0.23968
47 1 0.492194 0.322375 0.464646
300 2 0.578159 0.257541 0.387962
299 2 0.679238 0.426015 0.340014
67 1 0.725345 0.31877 0.363776
209 1 0.640577 0.386308 0.459603
224 1 0.497968 0.401102 0.315629
39 1 0.519001 0.503729 0.417248
121 1 0.802411 0.39577 0.261394
117 1 0.789808 0.232487 0.227408
179 1 0.982666 0.251122 0.447519
110 1 0.920278 0.377654 0.381507
20 1 0.779509 0.464126 0.419651
72 1 0.626211 0.8025 0.288383
307 2 0.93835 0.872251 0.341389
324 2 0.131566 0.663117 0.234204
337 2 0.209474 0.529684 0.283516
126 1 0.815764 0.906328 0.313924
140 1 0.244612 0.51771 0.427641
174 1 0.0505708 0.587642 0.296229
350 2 0.161171 0.605822 0.398006
194 1 0.130396 0.733986 0.3595
356 2 0.0235442 0.718463 0.314967
353 2 0.572087 0.246128 0.0044092
96 1 0.362127 0.549708 0.330248
233 1 0.245594 0.666998 0.287061
312 2 0.478852 0.592363 0.342485
8 1 0.275207 0.696716 0.422111
275 1 0.40561 0.693005 0.334186
218 1 0.38861 0.611311 0.453249
242 1 0.542904 0.670832 0.264728
202 1 0.605641 0.514553 0.30047
320 2 0.54887 0.745177 0.362473
245 1 0.667309 0.663792 0.351848
146 1 0.543537 0.652505 0.453787
58 1 0.643575 0.770022 0.456012
248 1 0.00718949 0.703597 0.439312
59 1 0.928199 0.585516 0.404813
284 1 0.79454 0.63597 0.447468
40 1 0.904842 0.621258 0.231847
210 1 0.761961 0.566833 0.286245
127 1 0.087687 0.973657 0.30026
156 1 0.0534224 0.860789 0.426979
113 1 0.231038 0.844097 0.464202
10 1 0.135054 0.985629 0.460778
319 2 0.169227 0.8727 0.356429
263 1 0.25118 0.962396 0.345946
316 2 0.345829 0.909923 0.291728
278 1 0.774471 0.780669 0.400327
14 1 0.493794 0.966141 0.279312
301 2 0.390656 0.103484 0.490777
304 2 0.835898 0.905775 0.0687194
21 1 0.174408 0.0591019 0.022024
118 1 0.926179 0.462219 0.496417
214 1 0.822288 0.345073 0.498127
25 1 0.127317 0.564808 0.00163646
79 1 0.729607 0.517458 0.00264211
247 1 0.689403 0.0383423 0.496954
230 1 0.0801082 0.565325 0.477891
183 1 0.429703 0.694777 0.0129977
106 1 0.955366 0.202682 0.00109766
44 1 0.873407 0.444313 0.00439993
107 1 0.19015 0.000367896 0.610765
83 1 0.265792 0.141348 0.632455
101 1 0.0638057 0.226923 0.591802
290 2 0.0331713 0.0900593 0.765132
5 1 0.0382936 0.245612 0.807815
226 1 0.139552 0.174067 0.721228
87 1 0.396937 0.0381831 0.597222
68 1 0.408628 0.110722 0.731482
325 2 0.303709 0.269233 0.590467
208 1 0.32178 0.26125 0.709015
82 1 0.421074 0.202838 0.565942
162 1 0.28415 1.00104 0.723482
98 1 0.525055 0.0891128 0.515483
137 1 0.666817 0.109421 0.631242
342 2 0.80569 0.081149 0.618555
153 1 0.515921 0.250719 0.727174
313 2 0.544966 0.157383 0.632443
200 1 0.0320421 0.0724105 0.634378
257 1 0.889435 0.0163761 0.683504
73 1 0.756849 0.206894 0.571896
38 1 0.966948 0.908316 0.990031
30 1 0.954113 0.1771 0.704863
335 2 0.842948 0.985875 0.535738
22 1 0.193105 0.4594 0.569549
29 1 0.199461 0.322928 0.627693
331 2 0.148137 0.330168 0.745977
199 1 0.0300826 0.34281 0.686821
281 1 0.387485 0.360188 0.579809
3 1 0.308022 0.432717 0.695398
166 1 0.448764 0.499186 0.666412
343 2 0.472115 0.452565 0.533906
15 1 0.431447 0.361166 0.75181
108 1 0.334404 0.514654 0.553325
359 2 0.16388 0.117477 0.555639
256 1 0.663687 0.278652 0.701677
84 1 0.539312 0.339327 0.608927
285 1 0.692657 0.370562 0.593866
223 1 0.582205 0.421661 0.72936
277 1 0.0245957 0.480571 0.615026
76 1 0.906634 0.257097 0.584816
56 1 0.87677 0.416296 0.63789
217 1 0.761796 0.408022 0.727353
170 1 0.120877 0.599553 0.632858
352 2 0.210168 0.716232 0.651792
75 1 0.132907 0.726653 0.520666
203 1 0.224528 0.617986 0.54241
184 1 0.300898 0.745855 0.567401
103 1 0.261403 0.591713 0.686666
11 1 0.396595 0.65711 0.624363
334 2 0.487137 0.575395 0.54772
346 2 0.384371 0.5055 0.768321
60 1 0.588152 0.50019 0.589012
158 1 0.555035 0.769037 0.590012
45 1 0.673492 0.651445 0.559039
133 1 0.559626 0.625829 0.66755
33 1 0.692667 0.547482 0.700908
267 1 0.860785 0.621931 0.990419
317 2 0.638439 0.724301 0.701966
264 1 0.979489 0.635308 0.567312
192 1 0.866757 0.557609 0.689019
52 1 0.764384 0.513484 0.567457
292 2 0.811004 0.645274 0.601285
274 1 0.843874 0.750081 0.538505
180 1 0.900803 0.721512 0.671678
119 1 0.238655 0.838838 0.664415
48 1 0.108213 0.881698 0.581454
339 2 0.186666 0.909205 0.796779
16 1 0.618016 0.224129 0.537806
185 1 0.430118 0.805464 0.667992
196 1 0.325855 0.905745 0.569508
191 1 0.433647 0.945536 0.743713
243 1 0.468749 0.905659 0.549564
255 1 0.621586 0.899186 0.553963
271 1 0.747461 0.972088 0.636695
53 1 0.541382 0.0346653 0.665247
258 1 0.588467 0.868911 0.70033
221 1 0.736594 0.8636 0.739472
172 1 0.0371071 0.90436 0.713055
130 1 0.982291 0.959495 0.540561
279 1 0.705263 0.788684 0.613478
207 1 0.49303 0.336547 0.979262
7 1 0.992386 0.784998 0.569198
86 1 0.870394 0.881415 0.620159
36 1 0.187723 0.206412 0.961174
254 1 0.0954049 0.102389 0.883704
323 2 0.216438 0.0741685 0.903388
348 2 0.0622086 0.268047 0.946072
288 1 0.50968 0.0380467 0.828745
123 1 0.268612 0.142602 0.807017
2 1 0.425792 0.25426 0.857203
355 2 0.424217 0.127682 0.864122
251 1 0.463041 0.0384061 0.979739
190 1 0.543098 0.174812 0.893524
63 1 0.636967 0.134087 0.775768
24 1 0.752671 0.105883 0.887843
152 1 0.655532 0.985822 0.775127
128 1 0.804716 0.13227 0.737077
177 1 0.944826 0.123722 0.868891
150 1 0.853457 0.992218 0.926869
291 2 0.851541 0.210755 0.894287
270 1 0.0614628 0.358292 0.52559
115 1 0.15221 0.455057 0.712066
144 1 0.199944 0.267067 0.831559
240 1 0.0679291 0.380845 0.83319
32 1 0.146424 0.358048 0.970376
135 1 0.232925 0.414883 0.838422
273 1 0.979011 0.784889 0.884424
283 1 0.396044 0.402617 0.884994
141 1 0.297067 0.312186 0.959437
306 2 0.319792 0.309607 0.812299
154 1 0.679985 0.213688 0.955252
70 1 0.591208 0.321036 0.855548
35 1 0.717973 0.402343 0.876849
333 2 0.806825 0.285278 0.646772
50 1 0.96709 0.350149 0.927478
64 1 0.890761 0.100234 0.517579
19 1 0.748446 0.262081 0.819007
268 1 0.812647 0.305388 0.968612
164 1 0.88418 0.317116 0.757508
182 1 0.944446 0.449186 0.779444
298 2 0.840741 0.392321 0.880665
26 1 0.0204323 0.581189 0.742666
211 1 0.0446841 0.738084 0.699992
244 1 0.165061 0.662092 0.775656
4 1 0.124998 0.532197 0.843599
246 1 0.0540624 0.660853 0.877281
205 1 0.31466 0.127232 0.964577
232 1 0.30996 0.720374 0.74568
100 1 0.403672 0.648367 0.845581
168 1 0.289029 0.567948 0.845199
23 1 0.420958 0.535215 0.955037
222 1 0.296679 0.727966 0.919276
249 1 0.509894 0.529309 0.810158
167 1 0.573869 0.456489 0.929213
43 1 0.546832 0.632636 0.922675
173 1 0.663397 0.576665 0.84847
336 2 0.0664778 0.460088 0.936229
175 1 0.812497 0.527482 0.866532
326 2 0.759863 0.643959 0.870878
176 1 0.916199 0.651189 0.824614
77 1 0.755697 0.676595 0.727139
160 1 0.962457 0.515806 0.91427
188 1 0.230812 0.954436 0.89881
201 1 0.147653 0.795676 0.851961
124 1 0.0833563 0.944942 0.902377
341 2 0.0785559 0.829972 0.952766
206 1 0.129587 0.0136762 0.750044
55 1 0.367741 0.0153393 0.856003
340 2 0.182453 0.649124 0.89518
122 1 0.304806 0.865192 0.798287
345 2 0.468367 0.938732 0.890855
241 1 0.32243 0.854838 0.971331
41 1 0.423412 0.806249 0.86453
27 1 0.58803 0.875158 0.848502
253 1 0.510609 0.722401 0.774063
204 1 0.623297 0.00953303 0.931327
186 1 0.660787 0.736399 0.82851
212 1 0.748145 0.883376 0.930643
37 1 0.539214 0.780008 0.948588
349 2 0.663999 0.783423 0.956252
308 2 0.272823 0.464973 0.948377
132 1 0.762264 0.894886 0.513232
322 2 0.871437 0.854525 0.9002
314 2 0.832488 0.759425 0.777099
266 1 0.964082 0.982311 0.820279
163 1 0.804933 0.984749 0.791278
189 1 0.816861 0.744568 0.908174
46 1 0.892636 0.862398 0.770452
159 1 0.683856 0.663068 0.993764
351 2 0.617423 0.55341 0.998113
69 1 0.161848 0.729964 0.993526
ITEM: TIMESTEP
100000
ITEM: NUMBER OF ATOMS
360
ITEM: BOX BOUNDS pp pp pp
0.0000000000000000e+00 6.6943295008216896e+00
0.0000000000000000e+00 6.6943295008216896e+00
0.0000000000000000e+00 6.6943295008216896e+00
ITEM: ATOMS id type xs ys zs
112 1 0.168067 0.154405 0.169712
134 1 0.983991 0.232613 0.212145
138 1 0.10833 0.997655 0.122003
95 1 0.292966 0.23167 0.245548
36 1 0.243819 0.0505204 0.0713559
94 1 0.215091 0.0204463 0.212796
318 2 0.290449 0.162674 0.120045
272 1 0.394136 0.0804163 0.0964527
155 1 0.397827 0.232387 0.0984803
77 1 0.139172 0.443261 0.484565
222 1 0.422206 0.135438 0.229015
48 1 0.0766927 0.710255 0.501258
236 1 0.715477 0.0217571 0.170803
55 1 0.543767 0.191219 0.143881
111 1 0.557991 0.0393662 0.202175
70 1 0.532229 0.0589623 0.0461456
187 1 0.671553 0.109234 0.0435965
335 2 0.79768 0.183883 0.260062
259 1 0.979404 0.110038 0.132881
194 1 0.827943 0.092123 0.154199
340 2 0.885411 0.210394 0.148054
328 2 0.793116 0.149932 0.0317558
360 2 0.480725 0.17829 0.0197131
303 2 0.191654 0.426196 0.131463
9 1 0.139501 0.333746 0.215899
25 1 0.0394131 0.411048 0.106781
88 1 0.112408 0.493399 0.198176
269 1 0.0736168 0.263223 0.102025
18 1 0.991494 0.658654 0.375791
199 1 0.240441 0.282365 0.0858583
161 1 0.285955 0.452624 0.0215119
207 1 0.393424 0.384504 0.122208
146 1 0.272862 0.406529 0.222409
346 2 0.497458 0.30153 0.142273
14 1 0.43132 0.299014 0.249425
19 1 0.512277 0.363134 0.0406003
116 1 0.539541 0.451472 0.171968
183 1 0.676292 0.49836 0.142797
358 2 0.736939 0.355852 0.10935
114 1 0.622076 0.31565 0.157036
97 1 0.742966 0.222831 0.133464
219 1 0.88977 0.326959 0.108435
79 1 0.736616 0.394121 0.233665
61 1 0.865598 0.474532 0.171592
176 1 0.920678 0.765703 0.4632
43 1 0.151484 0.522585 0.0461045
171 1 0.572521 0.552389 0.0429475
135 1 0.258998 0.548842 0.15743
216 1 0.972886 0.735523 0.202909
233 1 0.0957455 0.634622 0.258424
35 1 0.799596 0.441535 0.0363497
190 1 0.388738 0.517354 0.213483
99 1 0.383945 0.685451 0.10461
117 1 0.405416 0.543473 0.0338861
319 2 0.182621 0.85269 0.423121
54 1 0.519168 0.624637 0.163774
282 1 0.693381 0.64828 0.0954377
202 1 0.607583 0.534558 0.277837
310 2 0.71393 0.775408 0.144202
28 1 0.630597 0.720321 0.220734
242 1 0.593391 0.782781 0.0894982
263 1 0.569502 0.0412497 0.472246
324 2 0.92778 0.457025 0.0568553
59 1 -0.00394461 0.562795 0.118443
221 1 0.806545 0.742122 -0.00167021
126 1 0.830214 0.712322 0.150908
245 1 0.847722 0.584821 0.0665972
295 2 0.272922 0.448509 0.474912
156 1 0.138011 0.674558 0.111866
133 1 0.187511 0.915816 0.0174369
250 1 0.0199134 0.887487 0.191936
42 1 0.073164 0.803732 0.0788289
309 2 0.103295 0.760835 0.20453
261 1 0.200637 0.870157 0.162783
336 2 0.262883 0.68608 0.155282
168 1 0.270582 0.765199 0.0539655
339 2 0.472929 0.773077 0.111616
124 1 0.333291 0.925747 0.084371
49 1 0.368287 0.815783 0.185203
151 1 0.375724 0.963245 0.236604
23 1 0.498192 0.781192 0.242391
72 1 0.477115 0.930012 0.117121
349 2 0.622224 0.946758 0.110828
139 1 0.648746 0.872158 0.220898
159 1 0.711789 0.858211 0.0220062
92 1 0.776843 0.00492886 0.0381681
104 1 0.78763 0.886038 0.15742
31 1 0.948919 0.971213 0.0784008
106 1 0.90185 0.834217 0.0695277
342 2 0.895816 0.843356 0.204294
235 1 0.897801 0.98341 0.228689
145 1 0.0576352 0.0653473 0.254917
214 1 0.124687 0.18951 0.313521
73 1 0.215904 0.14688 0.44601
260 1 0.0697656 0.040219 0.407974
348 2 0.175803 0.071408 0.336726
76 1 0.0847294 0.223721 0.458832
196 1 0.300014 0.104426 0.321407
195 1 0.43645 0.181155 0.404592
351 2 0.331458 0.095646 0.462584
353 2 0.595182 0.919826 0.433137
90 1 0.526977 0.0780717 0.338468
256 1 0.690541 0.331377 0.469111
66 1 0.667843 0.13722 0.39964
121 1 0.673324 0.145884 0.24587
105 1 0.557884 0.227214 0.312223
257 1 0.786109 0.0537131 0.470118
75 1 0.818996 0.201392 0.421971
137 1 0.941489 0.108992 0.48202
268 1 0.918907 0.120256 0.30244
81 1 0.786735 0.0592587 0.304825
359 2 0.0188389 0.150616 0.375654
110 1 0.929778 0.194988 0.0196221
262 1 0.230263 0.29823 0.470501
89 1 0.0891599 0.33751 0.36076
96 1 0.205428 0.447995 0.34392
230 1 0.0652106 0.515342 0.356442
308 2 0.214832 0.296716 0.327414
193 1 0.339901 0.340454 0.376781
65 1 0.476188 0.326944 0.415247
136 1 0.474778 0.431493 0.315638
47 1 0.495871 0.469178 0.4543
20 1 0.604882 0.367738 0.309296
118 1 0.719725 0.278002 0.319613
300 2 0.609119 0.423583 0.409336
67 1 0.603369 0.553206 0.428817
237 1 0.730348 0.495823 0.357408
40 1 0.967917 0.406365 0.266201
179 1 0.819895 0.364699 0.38472
276 1 0.850871 0.295532 0.240939
33 1 0.946725 0.261252 0.357886
333 2 0.850427 0.454935 0.288167
307 2 0.946547 0.377047 0.387992
234 1 0.22195 0.74861 0.257899
174 1 0.240486 0.603368 0.316174
258 1 0.926214 0.840911 0.321846
280 1 0.227731 0.721277 0.427583
3 1 0.213399 0.562958 0.463389
255 1 0.941312 0.592329 0.25717
357 2 0.115394 0.633969 0.386402
238 1 0.361248 0.495057 0.382944
337 2 0.392752 0.520872 0.509179
13 1 0.360912 0.669884 0.257269
243 1 0.37469 0.678919 0.441163
264 1 0.46994 0.584292 0.354612
78 1 0.513102 0.755999 0.419834
305 2 0.499814 0.619744 0.483822
312 2 0.554566 0.662253 0.306897
58 1 0.679342 0.656628 0.339921
253 1 0.637317 0.700977 0.484317
98 1 0.305098 0.864542 0.464749
173 1 0.783413 0.591586 0.240089
356 2 0.882149 0.712871 0.279947
274 1 0.920331 0.499198 0.383527
8 1 0.776357 0.791481 0.269297
341 2 0.0633085 0.625295 0.0256632
170 1 0.840162 0.625804 0.389648
284 1 0.763423 0.765982 0.425039
213 1 0.957451 0.687903 0.0478547
271 1 0.0292815 0.874742 0.433764
62 1 0.125903 0.933089 0.304878
57 1 0.0880395 0.778484 0.338864
113 1 0.216572 0.997984 0.436767
22 1 0.915769 0.978231 0.377639
1 1 0.268529 0.894491 0.320527
354 2 0.465426 0.880793 0.433236
229 1 0.404398 0.986901 0.379359
45 1 0.388145 0.825785 0.342336
332 2 0.773999 0.919016 0.270973
225 1 0.660893 0.985776 0.346494
142 1 0.523971 0.918783 0.314906
285 1 0.640118 0.824453 0.354619
288 1 0.776871 0.912084 0.393933
315 2 0.997712 0.957607 0.288247