ITEM: TIMESTEP
0
ITEM: NUMBER OF ATOMS
360
ITEM: BOX BOUNDS pp pp pp
0.0000000000000000e+00 6.6943295008216896e+00
0.0000000000000000e+00 6.6943295008216896e+00
0.0000000000000000e+00 6.6943295008216896e+00
ITEM: ATOMS id type xs ys zs
23 1 0.0179969 0.143908 0.186438
12 1 0.0851209 0.0332287 0.0595142
54 1 0.16274 0.110476 0.173743
295 2 0.106689 0.191002 0.0765937
138 1 0.24243 0.0113087 0.0768984
128 1 0.199183 0.136014 0.00309331
14 1 0.310183 0.139885 0.149686
311 2 0.435489 0.127834 0.159301
13 1 0.43313 0.229042 0.0776269
42 1 0.491087 0.00650144 0.0609683
113 1 0.38379 0.0057339 0.185314
336 2 0.3579 0.139315 0.0255011
74 1 0.571832 0.155248 0.104017
187 1 0.692267 0.0598802 0.113903
174 1 0.730207 0.171724 0.210256
293 2 0.660867 0.00841953 0.219559
162 1 0.727742 0.206269 0.015016
132 1 0.537176 0.0459288 0.19783
1 1 0.509347 0.217485 0.231823
21 1 0.936475 0.0703793 0.0163783
278 1 0.882714 0.210223 0.0921183
104 1 0.849464 0.0490771 0.136924
25 1 0.138325 0.298967 0.0238581
247 1 0.190316 0.266438 0.187419
184 1 0.199012 0.412401 0.111648
29 1 0.0428928 0.298441 0.146967
69 1 0.0710194 0.463893 0.19152
31 1 0.0186767 0.422475 0.0209998
242 1 0.289276 0.278982 0.0653452
37 1 0.487048 0.485915 0.0370382
317 2 0.26854 0.376133 0.217331
112 1 0.359851 0.276473 0.218819
218 1 0.363572 0.405057 0.127415
212 1 0.505058 0.354353 0.122068
309 2 0.589044 0.39876 0.0252734
55 1 0.636076 0.288582 0.180138
95 1 0.628386 0.450238 0.13667
103 1 0.739136 0.353138 0.0868023
222 1 0.575216 0.269997 0.0130223
122 1 0.890182 0.35774 0.114009
292 2 0.857598 0.460302 0.21264
114 1 0.803836 0.312063 0.226728
111 1 0.99137 0.269791 0.00489476
226 1 0.191077 0.567201 0.122242
71 1 0.0561624 0.5755 0.062497
239 1 0.155893 0.724106 0.113336
305 2 0.032581 0.692526 0.00822931
141 1 0.49156 0.505963 0.190634
244 1 0.271746 0.689612 0.229447
198 1 0.321258 0.513586 0.0366431
123 1 0.466055 0.629959 0.0914292
17 1 0.305852 0.659205 0.0722393
312 2 0.448234 0.617873 0.225838
61 1 0.340714 0.547476 0.196531
178 1 0.408298 0.739792 0.183114
60 1 0.615106 0.602303 0.0783812
337 2 0.679535 0.562499 0.210938
168 1 0.704667 0.686054 0.16361
146 1 0.579881 0.633961 0.244872
189 1 0.772566 0.502088 0.131669
133 1 0.926514 0.515802 0.11028
164 1 0.761593 0.610262 0.0332812
358 2 0.990861 0.600005 0.189888
240 1 0.851753 0.631651 0.180731
145 1 0.981755 0.712633 0.121257
214 1 0.0808308 0.969562 0.215395
94 1 0.0398806 0.863173 0.0968481
191 1 0.202053 0.86732 0.146624
202 1 0.056109 0.804769 0.242643
108 1 0.243156 0.995244 0.229708
318 2 0.157622 0.923136 0.0376543
206 1 0.404738 0.762156 0.031286
302 2 0.2896 0.771453 0.136639
172 1 0.355718 0.898233 0.0815251
300 2 0.474524 0.862216 0.120757
236 1 0.318088 0.84558 0.243482
15 1 0.250111 0.808658 0.0208374
248 1 0.559816 0.764741 0.140399
230 1 0.506698 0.881278 0.243353
53 1 0.607505 0.919404 0.134053
322 2 0.692028 0.814943 0.139957
237 1 0.731028 0.927686 0.0301757
257 1 0.669859 0.777479 0.00456245
177 1 0.528443 0.871955 0.00224732
357 2 0.985159 0.977694 0.126791
195 1 0.820525 0.771042 0.0801652
229 1 0.886703 0.910566 0.0719609
251 1 0.923217 0.931686 0.226843
176 1 0.762244 0.927105 0.180636
347 2 0.932418 0.814319 0.168941
259 1 0.813297 0.796577 0.241289
290 2 0.139975 0.197147 0.280405
127 1 0.132769 0.0844261 0.338289
256 1 0.0310018 0.124136 0.481448
193 1 0.0255524 0.211325 0.343416
186 1 0.172206 0.217947 0.416658
271 1 0.262241 0.0416825 0.425443
238 1 0.270719 0.165372 0.312045
282 1 0.316376 0.182812 0.477863
156 1 0.424992 0.106777 0.293755
73 1 0.522162 0.146212 0.413591
181 1 0.632251 0.093629 0.30826
296 2 0.649386 0.166316 0.430599
233 1 0.621333 0.0362604 0.463719
274 1 0.762809 0.173382 0.371649
286 1 0.883677 0.18006 0.257158
27 1 0.769106 0.024796 0.433839
34 1 0.985617 0.0589532 0.307278
208 1 0.804192 0.0475647 0.286501
339 2 0.876087 0.112508 0.369109
287 1 0.928534 7.07729e-05 0.442049
75 1 0.877621 0.14862 0.491859
158 1 0.161042 0.387006 0.449589
86 1 0.113164 0.340789 0.307484
262 1 0.00188909 0.354087 0.424539
36 1 0.0749496 0.499071 0.351033
76 1 0.212988 0.479794 0.2805
333 2 0.0759053 0.485095 0.489759
107 1 0.411601 0.251055 0.371334
250 1 0.271032 0.329518 0.332023
124 1 0.373348 0.431947 0.283609
57 1 0.441005 0.386361 0.42861
153 1 0.298474 0.467967 0.43504
235 1 0.675753 0.412132 0.27765
285 1 0.594255 0.26733 0.495615
201 1 0.635561 0.255647 0.328201
22 1 0.518677 0.373351 0.272938
346 2 0.530838 0.309336 0.382188
147 1 0.592695 0.423168 0.418179
82 1 0.72416 0.315213 0.424321
335 2 0.726804 0.45411 0.391235
56 1 0.87934 0.26826 0.395105
97 1 0.959114 0.343776 0.262615
266 1 0.853084 0.414592 0.353131
115 1 0.941129 0.497524 0.454365
255 1 0.119275 0.618446 0.25247
32 1 0.0970731 0.602863 0.465224
96 1 0.133029 0.72724 0.359396
265 1 0.236014 0.606195 0.369435
340 2 0.181442 0.503178 0.413803
298 2 0.00134572 0.637572 0.357322
360 2 0.342174 0.54297 0.345082
93 1 0.372357 0.595067 0.464929
125 1 0.389765 0.666084 0.325552
234 1 0.474572 0.534562 0.343019
338 2 0.582312 0.501828 0.284983
344 2 0.514397 0.747305 0.267233
209 1 0.512235 0.687107 0.425335
330 2 0.614433 0.712215 0.345787
220 1 0.639794 0.575876 0.389667
205 1 0.668381 0.725523 0.463591
40 1 0.735924 0.687594 0.333346
90 1 0.521234 0.548214 0.49716
353 2 0.792727 0.670768 0.485094
6 1 0.921934 0.641875 0.446841
79 1 0.772692 0.534278 0.288032
182 1 0.792116 0.550912 0.435376
275 1 0.942968 0.707385 0.28127
217 1 0.928464 0.54195 0.290877
314 2 0.851333 0.628004 0.334946
273 1 0.0964809 0.97047 0.473507
328 2 0.18898 0.786002 0.253833
263 1 0.0263793 0.914415 0.348585
197 1 0.187115 0.884448 0.332372
102 1 0.147109 0.835224 0.479345
77 1 0.482438 0.924463 0.480224
26 1 0.327226 0.894744 0.471318
144 1 0.27817 0.771387 0.384583
243 1 0.36248 0.968593 0.336278
30 1 0.434976 0.8161 0.355176
224 1 0.41144 0.77227 0.499141
150 1 0.646532 0.802767 0.256422
264 1 0.52167 0.990901 0.351153
129 1 0.679387 0.940436 0.333875
131 1 0.698795 0.881191 0.487923
157 1 0.582992 0.836708 0.394319
323 2 0.725305 0.825597 0.35581
254 1 0.839189 0.764698 0.413316
101 1 0.840199 0.909556 0.351914
33 1 0.993681 0.777454 0.413213
329 2 0.85426 0.902901 0.478997
342 2 0.938491 0.830525 0.301125
134 1 0.12219 0.0124588 0.652732
284 1 0.0628915 0.152847 0.631047
83 1 0.241351 0.0893091 0.707252
276 1 0.169781 0.0924937 0.53426
98 1 0.252801 0.216073 0.61491
163 1 0.399323 0.159517 0.648982
343 2 0.295777 0.0831637 0.565556
204 1 0.404845 0.0688616 0.50251
49 1 0.50108 0.00846107 0.637105
190 1 0.584064 0.136455 0.587528
277 1 0.71454 0.156302 0.706338
173 1 0.68296 0.0221275 0.628689
192 1 0.727877 0.145538 0.534652
8 1 0.5403 0.113192 0.737561
171 1 0.833237 0.0844964 0.648631
315 2 0.940097 0.143061 0.609904
72 1 0.961655 0.0215848 0.589708
117 1 0.83577 0.243889 0.639081
7 1 0.965657 0.105511 0.735105
170 1 0.137972 0.257184 0.725215
221 1 0.114846 0.279585 0.543093
211 1 0.187186 0.382458 0.640157
245 1 0.0153672 0.40103 0.572852
139 1 0.0685178 0.410017 0.749962
65 1 0.371357 0.325726 0.663351
89 1 0.399089 0.46717 0.578418
135 1 0.358845 0.487796 0.732352
179 1 0.485265 0.40528 0.721284
203 1 0.454184 0.259794 0.545745
64 1 0.298945 0.332432 0.513969
200 1 0.550026 0.264574 0.681002
272 1 0.694981 0.289672 0.597747
321 2 0.619924 0.386851 0.663947
288 1 0.534453 0.398004 0.563245
16 1 0.712198 0.429183 0.521294
19 1 0.773693 0.408875 0.675313
38 1 0.988962 0.283961 0.693369
80 1 0.965669 0.255899 0.549134
313 2 0.891574 0.360425 0.652133
3 1 0.926647 0.463067 0.722445
28 1 0.853905 0.373594 0.520632
299 2 0.801021 0.257262 0.506887
304 2 0.101337 0.506472 0.637126
228 1 0.190296 0.51243 0.546096
84 1 0.213455 0.535554 0.709665
253 1 0.23461 0.675556 0.528492
152 1 0.132039 0.634766 0.628004
2 1 0.0524264 0.734363 0.541576
324 2 0.248859 0.672562 0.680503
35 1 0.0267333 0.585182 0.749032
151 1 0.478576 0.561166 0.686146
281 1 0.33347 0.613724 0.616868
50 1 0.443195 0.713463 0.658835
348 2 0.449853 0.647029 0.540342
270 1 0.630073 0.5024 0.642237
231 1 0.572943 0.643676 0.59897
258 1 0.727072 0.621336 0.592292
185 1 0.742698 0.745893 0.695196
316 2 0.65966 0.742754 0.598867
359 2 0.651256 0.548368 0.515459
100 1 0.995567 0.567918 0.590486
345 2 0.987108 0.691662 0.654733
130 1 0.840603 0.513594 0.575628
207 1 0.870013 0.661567 0.60534
354 2 0.912777 0.578256 0.684848
88 1 0.784876 0.567445 0.727792
291 2 0.105636 0.899949 0.581212
213 1 0.161804 0.789844 0.632633
41 1 0.23098 0.950813 0.563241
87 1 0.0487601 0.887024 0.688654
196 1 0.226269 0.904376 0.709216
294 2 0.263897 0.793759 0.508633
10 1 0.34766 0.992733 0.641268
70 1 0.325919 0.802611 0.636053
46 1 0.458825 0.865529 0.702367
349 2 0.417288 0.878954 0.579986
308 2 0.458194 0.98674 0.749848
303 2 0.60995 0.933617 0.556973
109 1 0.584332 0.766512 0.709049
260 1 0.54572 0.80435 0.55984
280 1 0.678334 0.865666 0.642098
18 1 0.974999 0.874944 0.541505
223 1 0.892116 0.957111 0.720119
143 1 0.803923 0.790472 0.561724
350 2 0.806688 0.860589 0.689252
159 1 0.918757 0.799624 0.669034
99 1 0.807446 0.940239 0.591142
306 2 0.916945 0.759354 0.516588
68 1 0.112212 0.108675 0.792427
43 1 0.0623759 0.12971 0.935192
142 1 0.195571 0.239284 0.884469
332 2 0.140929 0.0181404 0.936694
155 1 0.0289276 0.246657 0.841741
121 1 0.251879 0.0873593 0.871261
116 1 0.297829 0.236343 0.773389
267 1 0.406516 0.100628 0.821732
126 1 0.343971 0.212886 0.922484
51 1 0.360584 0.0218967 0.972206
119 1 0.451766 0.239399 0.792042
92 1 0.48023 0.12549 0.964605
356 2 0.473322 0.248872 0.935207
297 2 0.543865 0.0942035 0.860346
45 1 0.661833 0.0688082 0.819647
161 1 0.589821 0.219127 0.863016
326 2 0.620049 0.156472 0.977835
215 1 0.745525 0.190184 0.867043
62 1 0.61324 0.0165544 0.963325
166 1 0.789848 0.0574845 0.980337
352 2 0.849572 0.16655 0.758902
106 1 0.902899 0.171097 0.896407
140 1 0.825346 0.0644243 0.814361
331 2 0.943468 0.0204705 0.885135
210 1 0.108424 0.382974 0.898453
194 1 0.228906 0.399977 0.790353
66 1 0.176206 0.490037 0.973631
327 2 0.147675 0.492735 0.848185
249 1 0.410129 0.345151 0.986422
9 1 0.258585 0.365927 0.946426
261 1 0.382377 0.367268 0.836551
310 2 0.396315 0.463713 0.945326
160 1 0.696149 0.3021 0.756864
320 2 0.56741 0.330374 0.793752
5 1 0.52805 0.397527 0.903329
279 1 0.67213 0.336019 0.924883
268 1 0.623032 0.446773 0.799534
63 1 0.67966 0.476074 0.988071
59 1 0.835786 0.466123 0.992384
44 1 0.841545 0.30683 0.950629
246 1 0.781969 0.43265 0.832932
167 1 0.856813 0.30755 0.781059
91 1 0.941757 0.408132 0.875215
48 1 0.149269 0.659091 0.969194
81 1 0.160788 0.62619 0.825894
216 1 0.0380676 0.544184 0.898948
169 1 0.00847254 0.692413 0.887264
47 1 0.0717959 0.741055 0.759978
325 2 0.144605 0.74788 0.870107
4 1 0.333534 0.629368 0.780864
219 1 0.450115 0.518366 0.850335
137 1 0.275101 0.722465 0.906014
269 1 0.282914 0.51942 0.875502
20 1 0.402228 0.626233 0.940784
118 1 0.496043 0.659041 0.806609
307 2 0.429106 0.742314 0.906665
67 1 0.638417 0.616802 0.753759
341 2 0.658401 0.645096 0.964365
149 1 0.577613 0.565843 0.925679
154 1 0.641902 0.726776 0.861801
136 1 0.541395 0.711019 0.980774
227 1 0.737515 0.576294 0.88394
11 1 0.921564 0.622166 0.992501
301 2 0.764651 0.677702 0.801997
105 1 0.815239 0.701144 0.926487
199 1 0.890401 0.674701 0.761983
252 1 0.884287 0.555001 0.850007
85 1 0.0257571 0.981154 0.801209
39 1 0.111626 0.812759 0.963243
351 2 0.159471 0.994048 0.799549
180 1 0.224229 0.759561 0.762817
110 1 0.0201729 0.943892 0.947086
58 1 0.14335 0.869415 0.831499
148 1 0.23898 0.939675 0.932277
289 2 0.271742 0.839432 0.858858
232 1 0.33297 0.960458 0.796863
24 1 0.369307 0.787638 0.793163
183 1 0.386035 0.874302 0.923945
165 1 0.489826 0.97662 0.876652
120 1 0.586253 0.951628 0.757913
52 1 0.51793 0.824593 0.841736
225 1 0.660054 0.879062 0.880608
319 2 0.672614 0.824865 0.764989
175 1 0.742286 0.945244 0.767324
355 2 0.732277 0.988009 0.885587
241 1 0.961757 0.844454 0.837088
283 1 0.813171 0.812517 0.807354
334 2 0.79779 0.821896 0.95945
78 1 0.848168 0.927485 0.908164
188 1 0.945467 0.787386 0.992603
ITEM: TIMESTEP
3000000
ITEM: NUMBER OF ATOMS
360
ITEM: BOX BOUNDS pp pp pp
0.0000000000000000e+00 6.6943295008216896e+00
0.0000000000000000e+00 6.6943295008216896e+00
0.0000000000000000e+00 6.6943295008216896e+00
ITEM: ATOMS id type xs ys zs
284 1 0.0684196 0.150518 0.105427
312 2 0.160881 0.208949 0.155165
160 1 0.220068 0.0934698 0.0720765
176 1 0.0296104 0.00647991 0.166789
49 1 0.139954 0.378712 0.497901
126 1 0.346573 0.195179 0.0734254
211 1 0.318935 0.0503022 0.173619
127 1 0.27876 0.216693 0.231451
1 1 0.4635 0.045392 0.103933
17 1 0.434687 0.17679 0.22111
82 1 0.558834 0.161786 0.455649
311 2 0.615599 0.221787 0.185014
181 1 0.583314 0.0896046 0.216352
247 1 0.523831 0.186132 0.0919575
90 1 0.729261 0.13759 0.19117
178 1 0.639873 0.0179273 0.0745294
129 1 0.950808 0.823515 0.406603
119 1 0.787838 0.0635239 0.0582043
111 1 0.893565 0.162176 0.185351
261 1 0.826109 0.216769 0.0614066
23 1 0.935671 0.110151 0.0121968
346 2 0.951711 0.209593 0.0828543
104 1 0.860885 0.00686552 0.186312
189 1 0.092191 0.313594 0.0731023
210 1 0.0703148 0.475215 0.0812747
274 1 0.0992039 0.400769 0.208559
351 2 0.193125 0.426051 0.116499
323 2 0.223224 0.350957 0.234246
29 1 0.245253 0.29843 0.0941564
112 1 0.295697 0.470973 0.197339
238 1 0.374276 0.330786 0.178413
141 1 0.463458 0.450568 0.113462
76 1 0.449885 0.323877 0.0270222
31 1 0.328214 0.420665 0.0429769
231 1 0.708658 0.292773 0.107715
114 1 0.652542 0.430036 0.0910848
22 1 0.539694 0.330438 0.154733
326 2 0.727123 0.419874 0.194182
235 1 0.597306 0.49565 0.225279
174 1 0.992535 0.286346 0.202852
106 1 0.953576 0.452366 0.185954
154 1 0.816836 0.446234 0.091554
88 1 0.928915 0.3348 0.0725105
55 1 0.828547 0.320821 0.192184
242 1 0.194335 0.552788 0.109854
332 2 0.08153 0.600749 0.04449
226 1 0.119357 0.686771 0.145785
280 1 0.0797242 0.559672 0.2187
243 1 0.297295 0.0199464 0.488246
310 2 0.248435 0.68499 0.110165
228 1 0.273502 0.631955 0.211005
359 2 0.313552 0.54456 0.0752482
144 1 0.411811 0.59026 0.144156
137 1 0.335393 0.669551 0.0180029
306 2 0.466313 0.670237 0.0481539
248 1 0.497309 0.736896 0.159326
92 1 0.583944 0.723278 0.0318115
220 1 0.726495 0.54243 0.160883
59 1 0.635317 0.673865 0.19425
175 1 0.571515 0.57328 0.0890206
324 2 0.676985 0.646807 0.0746188
150 1 0.973929 0.608007 0.11794
36 1 0.967118 0.761343 0.161879
187 1 0.832458 0.622199 0.0557149
153 1 0.812372 0.683662 0.21569
347 2 0.851682 0.558932 0.16703
12 1 0.176207 0.959644 0.156921
180 1 0.0228195 0.724602 0.0098645
11 1 0.0515332 0.868806 0.0678403
145 1 0.0727133 0.851093 0.213752
223 1 0.200183 0.801764 0.0843894
42 1 0.349588 0.768536 0.171431
15 1 0.33781 0.929256 0.0703898
177 1 0.431052 0.802776 0.0224802
30 1 0.459778 0.8757 0.155291
93 1 0.331644 0.913099 0.236867
74 1 0.710353 0.973805 0.209737
355 2 0.547685 0.965343 0.151623
2 1 0.745236 0.74557 0.0875745
57 1 0.600086 0.864833 0.0976975
103 1 0.70554 0.824579 0.24032
240 1 0.87784 0.801529 0.028585
230 1 0.833905 0.838963 0.176969
293 2 0.960369 0.891904 0.147342
278 1 0.753092 0.910422 0.0724713
21 1 0.917179 0.956825 0.044141
229 1 0.157096 0.122326 0.250373
298 2 0.0312552 0.163057 0.231739
251 1 0.0666547 0.174578 0.366128
202 1 0.169193 0.0620735 0.401161
276 1 0.237669 0.201339 0.386665
244 1 0.309268 0.0610965 0.335817
156 1 0.445835 0.122282 0.369504
108 1 0.457915 0.00975354 0.249069
173 1 0.85716 0.964981 0.40335
163 1 0.549414 0.41374 0.461727
305 2 0.690816 0.032697 0.318679
27 1 0.674937 0.162035 0.333526
101 1 0.584551 0.0346036 0.36847
192 1 0.724657 0.0617829 0.460007
14 1 0.544385 0.237857 0.302052
205 1 0.958034 0.07075 0.301375
151 1 0.935833 0.140643 0.454403
142 1 0.801137 0.202112 0.420519
166 1 0.812645 0.0829441 0.316042
275 1 0.927229 0.251634 0.342058
299 2 0.796249 0.234411 0.272078
259 1 0.14254 0.271717 0.282638
53 1 0.70574 0.92195 0.37368
290 2 0.0538009 0.461995 0.442579
331 2 0.146954 0.284407 0.412439
350 2 0.0135738 0.47608 0.306326
66 1 0.132449 0.472396 0.336328
86 1 0.0444423 0.348864 0.366706
186 1 0.247181 0.369022 0.360633
54 1 0.30836 0.309824 0.490919
353 2 0.366898 0.39374 0.289434
124 1 0.376489 0.264635 0.361068
135 1 0.390855 0.433354 0.427082
249 1 0.509151 0.380012 0.320226
304 2 0.948549 0.478202 0.0546892
168 1 0.665887 0.324178 0.257926
147 1 0.664578 0.286942 0.416414
79 1 0.676254 0.443875 0.367622
267 1 0.66813 0.155157 0.0333033
300 2 0.911662 0.36252 0.277574
258 1 0.794023 0.340129 0.34533
133 1 0.925444 0.454286 0.391312
80 1 0.878729 0.332845 0.479707
69 1 0.810701 0.478015 0.280621
338 2 0.196056 0.529801 0.248435
254 1 0.0203112 0.701756 0.289239
292 2 0.704963 0.826122 0.457294
333 2 0.186696 0.562281 0.429779
28 1 0.0396513 0.580195 0.40272
204 1 0.168074 0.646697 0.326918
339 2 0.0465785 0.726381 0.421082
158 1 0.424248 0.5089 0.266204
33 1 0.276415 0.643298 0.463727
265 1 0.286376 0.526918 0.349136
327 2 0.294032 0.659638 0.342098
271 1 0.412389 0.592957 0.408426
50 1 0.412838 0.673492 0.275174
337 2 0.435724 0.718294 0.400161
343 2 0.508993 0.600453 0.229168
52 1 0.568442 0.676229 0.473684
95 1 0.552713 0.532745 0.374524
125 1 0.689825 0.587133 0.314715
241 1 0.553544 0.679022 0.321539
344 2 0.682465 0.71527 0.303245
34 1 0.716295 0.687422 0.43397
255 1 0.941695 0.910478 0.276675
325 2 0.902366 0.747762 0.27125
297 2 0.816843 0.599321 0.322222
7 1 0.794941 0.541731 0.433795
283 1 0.894574 0.683196 0.388644
25 1 0.932612 0.58243 0.2734
319 2 0.199624 0.740282 0.403708
236 1 0.0226942 0.00356377 0.446153
349 2 0.135891 0.945858 0.442731
6 1 0.0866733 0.968984 0.309973
96 1 0.0970232 0.829968 0.369804
121 1 0.239368 0.918385 0.371999
206 1 0.213123 0.778504 0.248671
237 1 0.810549 0.808422 0.348067
329 2 0.805249 0.926893 0.282942
109 1 0.325793 0.779618 0.380246
157 1 0.387295 0.929696 0.384455
132 1 0.455489 0.81584 0.306845
61 1 0.484113 0.818311 0.475864
314 2 0.580843 0.797269 0.233932
172 1 0.584972 0.915226 0.262253
130 1 0.60105 0.945222 0.482684
320 2 0.518943 0.924322 0.390206
85 1 0.598417 0.806658 0.375646
212 1 0.711599 0.541383 0.00402388
335 2 0.223751 0.131766 0.50017
43 1 0.0950054 0.030027 0.00381705
197 1 0.454564 0.0254064 0.49351
289 2 0.826567 0.652665 0.495077
115 1 0.130857 0.675632 0.494539
70 1 0.119386 0.104296 0.700003
170 1 0.0169794 0.209346 0.655455
56 1 0.0819673 0.121037 0.529312
218 1 0.176356 0.238272 0.542219
336 2 0.764282 0.281231 0.514895
233 1 0.260373 0.100707 0.62094
159 1 0.403416 0.0387373 0.644147
322 2 0.380982 0.150691 0.698669
113 1 0.48228 0.164592 0.605463
287 1 0.677543 0.851505 0.96054
316 2 0.293934 0.961549 0.608932
161 1 0.289098 0.00670508 0.742045
272 1 0.631988 0.184221 0.68951
107 1 0.592698 0.0547985 0.613996
288 1 0.691665 0.177338 0.556026
294 2 0.758611 0.0641463 0.66681
46 1 0.525766 0.0178666 0.746956
208 1 0.908266 0.88917 0.799451
302 2 0.952601 0.134271 0.578774
78 1 0.00692297 0.0134704 0.606831
214 1 0.848598 0.0623071 0.56358
10 1 0.898748 0.0930835 0.697829
105 1 0.837351 0.211189 0.600176
340 2 0.000495082 0.132441 0.762284
308 2 0.0887731 0.322986 0.607174
196 1 0.161745 0.274364 0.700017
64 1 0.154011 0.443071 0.659493
139 1 0.00205033 0.372267 0.69872
224 1 0.207149 0.838801 0.502437
152 1 0.822952 0.909444 0.92495
356 2 0.229764 0.348449 0.614868
68 1 0.320101 0.251703 0.635048
179 1 0.400586 0.416585 0.579732
252 1 0.460973 0.313964 0.681204
20 1 0.4341 0.468766 0.725867
77 1 0.286524 0.367014 0.747529
67 1 0.817512 0.783359 0.529513
149 1 0.595114 0.29168 0.559907
4 1 0.577675 0.429089 0.625572
193 1 0.703454 0.455934 0.721313
122 1 0.733857 0.400187 0.517432
171 1 0.990325 0.427302 0.544777
167 1 0.739323 0.30617 0.665242
3 1 0.861331 0.405482 0.637174
315 2 0.932188 0.293635 0.59742
44 1 0.88054 0.290379 0.747432
270 1 0.842614 0.439134 0.792702
75 1 0.0490619 0.881653 0.535691
81 1 0.155652 0.601352 0.65564
328 2 0.0398668 0.653989 0.591188
262 1 0.107771 0.532098 0.537101
245 1 0.00252964 0.679407 0.719897
148 1 0.388594 0.704275 0.532075
83 1 0.497667 0.549689 0.554035
35 1 0.285412 0.520697 0.678566
89 1 0.401408 0.623426 0.664251
295 2 0.353419 0.573308 0.552299
203 1 0.258064 0.705569 0.615988
291 2 0.288106 0.63744 0.739464
225 1 0.617474 0.574452 0.673758
342 2 0.555048 0.669004 0.601874
118 1 0.746306 0.647839 0.754807
136 1 0.608256 0.728333 0.706274
16 1 0.70003 0.671876 0.592878
182 1 -0.000212126 0.543132 0.655573
40 1 0.77857 0.529354 0.584211
134 1 0.859836 0.660049 0.631294
318 2 0.852573 0.705014 0.750112
358 2 0.539519 0.836867 0.958944
37 1 0.577713 0.936536 0.893852
47 1 0.960439 0.736175 0.528036
99 1 0.110249 0.761463 0.627893
26 1 0.126363 0.9356 0.695686
116 1 0.16459 1.00136 0.553688
354 2 0.17263 0.0314942 0.792658
191 1 0.241755 0.854399 0.651845
330 2 0.346618 0.786265 0.647193
273 1 0.362429 0.880358 0.527472
72 1 0.392832 0.905522 0.713119
266 1 0.474862 0.761941 0.650821
260 1 0.503596 0.917775 0.600653
102 1 0.611842 0.799172 0.557123
207 1 0.660347 0.923017 0.655864
264 1 0.549304 0.858613 0.741168
18 1 0.747614 0.918623 0.536142
138 1 0.35955 0.0770707 0.978809
128 1 0.817753 0.94886 0.681142
215 1 0.898867 0.915325 0.553874
100 1 0.913616 0.798898 0.66804
253 1 0.749574 0.795801 0.675027
296 2 0.00593241 0.894528 0.65631
120 1 0.254297 0.14807 0.772611
117 1 0.0778961 0.104049 0.857959
194 1 0.170958 0.207355 0.99265
281 1 0.220144 0.0682552 0.904797
97 1 0.0124785 0.25007 0.958843
285 1 0.395735 0.0908757 0.825292
313 2 0.29771 0.168046 0.9135
269 1 0.450748 0.203582 0.942121
131 1 0.372483 0.262065 0.809693
91 1 0.323126 0.287499 0.957317
222 1 0.506803 0.19389 0.792231
87 1 0.550067 0.0915557 0.93094
277 1 0.676068 0.0568722 0.770977
13 1 0.653386 0.213999 0.871552
162 1 0.706856 0.0339818 0.928299
19 1 0.969157 0.0114774 0.904323
282 1 0.789846 0.164298 0.919612
155 1 0.765294 0.173244 0.754694
256 1 0.919072 0.174099 0.844912
165 1 0.8292 0.0274067 0.821262
360 2 0.723749 0.263806 0.986849
317 2 0.850865 0.0407943 0.95457
41 1 0.0358774 0.268624 0.805385
184 1 0.0116664 0.403964 0.958282
84 1 0.115984 0.4044 0.810728
51 1 0.194525 0.254035 0.854296
221 1 0.201731 0.380953 0.957031
301 2 0.249705 0.444908 0.850369
216 1 0.37366 0.423927 0.889193
219 1 0.508838 0.328661 0.87158
8 1 0.607759 0.331553 0.747364
201 1 0.549223 0.444076 0.959439
60 1 0.578414 0.46816 0.809094
341 2 0.636189 0.344199 0.87512
164 1 0.737477 0.386527 0.971176
5 1 0.70016 0.530995 0.853909
257 1 0.591732 0.284724 0.989561
63 1 0.7546 0.324032 0.830731
200 1 0.870687 0.303775 0.934982
321 2 0.956331 0.36212 0.855136
268 1 0.865988 0.464969 0.945802
123 1 0.187872 0.917188 0.995545
246 1 0.995397 0.502397 0.83094
303 2 0.0825884 0.542075 0.743002
213 1 0.182775 0.711667 0.763184
71 1 0.115665 0.515399 0.936765
209 1 0.191896 0.554406 0.803625
188 1 0.0854675 0.643834 0.86667
334 2 0.469213 0.504921 0.874604
352 2 0.479545 0.755114 0.783677
9 1 0.273451 0.686336 0.886088
143 1 0.269219 0.526802 0.951334
169 1 0.371137 0.569908 0.825521
39 1 0.449822 0.696726 0.919999
73 1 0.2639 0.469023 0.506877
345 2 0.688964 0.776229 0.789142
24 1 0.511569 0.620469 0.776566
307 2 0.636593 0.639998 0.812285
62 1 0.565839 0.596686 0.917457
232 1 0.697706 0.686698 0.929624
195 1 0.585642 0.756655 0.853302
348 2 0.81667 0.723128 0.953009
140 1 0.808647 0.786603 0.84033
199 1 0.971796 0.581007 0.969609
227 1 0.887096 0.580085 0.753064
217 1 0.835426 0.603944 0.896875
185 1 0.94275 0.714028 0.871286
190 1 0.713822 0.918854 0.804333
48 1 0.999523 0.857001 0.927158
286 1 0.995665 0.997727 0.756068
58 1 0.10406 0.944852 0.856358
279 1 0.0488911 0.827147 0.766256
239 1 0.147288 0.788741 0.908621
198 1 0.239824 0.86071 0.803513
45 1 0.350496 0.747319 0.771445
110 1 0.329055 0.954759 0.878519
94 1 0.293166 0.82455 0.954376
263 1 0.450032 0.849831 0.879114
357 2 0.45618 0.97111 0.848193
234 1 0.184095 0.656588 1.0021
309 2 0.869228 0.46678 0.521185
146 1 0.451566 0.275752 0.501598
65 1 0.428382 0.536443 0.985315
38 1 0.0116861 0.26969 0.505921
98 1 0.351415 0.163364 0.510817
250 1 0.643498 0.555975 0.504295
183 1 0.468722 0.946391 0.994564
32 1 0.930108 0.574288 0.520364
ITEM: TIMESTEP
6000000
ITEM: NUMBER OF ATOMS
360
ITEM: BOX BOUNDS pp pp pp
0.0000000000000000e+00 6.6943295008216896e+00
0.0000000000000000e+00 6.6943295008216896e+00
0.0000000000000000e+00 6.6943295008216896e+00
ITEM: ATOMS id type xs ys zs
194 1 0.0590843 0.138017 0.13559
347 2 0.0499834 0.235949 0.0504122
326 2 0.148249 0.120684 0.238526
50 1 0.144721 0.0145206 0.0622719
284 1 0.234143 0.121742 0.127409
15 1 0.398771 0.158674 0.192976
189 1 0.353 0.16902 0.0318693
132 1 0.368749 0.0416749 0.104741
331 2 0.311564 0.0820653 0.219147
219 1 0.509455 0.104295 0.0662088
181 1 0.642346 0.192163 0.0938144
172 1 0.659465 0.0339686 0.0591839
17 1 0.504248 0.0409704 0.215593
22 1 0.722786 0.22782 0.227435
126 1 0.561168 0.185918 0.253003
142 1 0.677277 0.0874078 0.234596
166 1 0.791422 0.135506 0.114285
335 2 0.89637 0.164667 0.193134
255 1 0.917474 0.0291659 0.164483
88 1 0.928484 0.178363 0.066666
152 1 0.834573 0.0191824 0.0265535
242 1 0.158099 0.257986 0.14669
274 1 0.100634 0.389091 0.195967
290 2 0.226714 0.362838 0.117745
66 1 0.284174 0.64108 0.485475
137 1 0.154156 0.483799 0.0626109
249 1 0.430695 0.699957 0.477288
65 1 0.312408 0.454479 0.0499246
238 1 0.325784 0.287429 0.149887
114 1 0.386812 0.435612 0.202329
263 1 0.46705 0.481478 0.0649567
306 2 0.413949 0.369255 0.085484
87 1 0.475403 0.303069 0.198455
269 1 0.49268 0.254065 0.0475847
90 1 0.595683 0.351557 0.128114
39 1 0.552791 0.468634 0.197969
62 1 0.694585 0.456145 0.0313205
175 1 0.71637 0.46719 0.187813
355 2 0.713819 0.345569 0.179927
231 1 0.731334 0.310916 0.0402333
174 1 -0.00345681 0.272833 0.164834
71 1 0.00608073 0.453567 0.0968298
106 1 0.838087 0.293436 0.145965
154 1 0.843839 0.450023 0.084098
168 1 0.919169 0.404767 0.222541
214 1 0.782983 0.180074 0.482587
129 1 0.961854 0.809231 0.340229
234 1 0.237128 0.489562 0.196507
323 2 0.10451 0.519611 0.182995
268 1 0.193368 0.633934 0.121786
246 1 0.0408286 0.611308 0.110237
254 1 -0.00424001 0.713172 0.228999
318 2 0.12003 0.737439 0.154685
325 2 0.689683 0.828151 0.441536
330 2 0.281248 0.633105 0.220424
235 1 0.350897 0.584863 0.117559
183 1 0.430562 0.712246 0.179884
358 2 0.4827 0.568624 0.156097
96 1 0.313751 0.718538 0.0306286
94 1 0.479251 0.64314 0.0525875
144 1 0.626784 0.575967 0.11873
212 1 0.733595 0.686981 0.0918209
59 1 0.718873 0.641228 0.238297
344 2 0.755694 0.551962 0.10055
287 1 0.59141 0.730309 0.149384
28 1 0.981528 0.545767 0.248076
210 1 0.873589 0.602772 0.152299
187 1 0.876554 0.712037 0.0301251
220 1 0.855507 0.747942 0.184291
204 1 0.24747 0.756258 0.177829
317 2 0.0333267 0.995304 0.115488
230 1 0.106793 -0.00121319 0.219419
176 1 0.136888 0.85633 0.12341
156 1 0.246872 0.955769 0.164184
173 1 0.853872 0.898948 0.281585
130 1 0.375831 0.86998 0.120313
248 1 0.49412 0.804126 0.0363286
158 1 0.492383 0.850802 0.215204
324 2 0.362514 0.820098 0.241609
92 1 0.502918 0.953217 0.0844868
36 1 0.616232 0.936544 0.205381
1 1 0.632677 0.872567 0.0496991
153 1 0.723958 0.816935 0.19399
32 1 0.849348 0.587785 0.498404
180 1 0.011139 0.773648 0.0766612
304 2 0.856629 0.870277 0.154993
43 1 0.934902 0.913138 0.0584513
104 1 0.758592 0.979218 0.173438
240 1 0.994427 0.898649 0.204699
140 1 0.792186 0.847789 0.0411451
300 2 0.207174 0.0503294 0.455524
111 1 0.0141736 0.128316 0.275932
280 1 0.103916 0.0981153 0.398809
124 1 0.22629 0.0420749 0.314971
275 1 0.0342289 0.225284 0.441519
112 1 0.250692 0.212449 0.264913
157 1 0.299104 0.138251 0.394118
72 1 0.438299 0.12812 0.348356
349 2 0.404131 0.0815042 0.463426
218 1 0.414535 0.213175 0.485379
192 1 0.67285 0.172421 0.364427
101 1 0.59563 0.0309362 0.357923
159 1 0.532582 0.124275 0.469711
299 2 0.65049 0.0944967 0.462506
55 1 0.835748 0.0788877 0.282284
128 1 0.752072 0.0344487 0.421492
155 1 0.923723 0.126019 0.405164
305 2 0.805101 0.212759 0.361943
151 1 0.977163 0.998521 0.328992
133 1 0.0708261 0.448302 0.476318
226 1 0.104087 0.264021 0.302829
73 1 0.231935 0.429727 0.436685
329 2 0.13131 0.350782 0.404907
233 1 0.268262 0.281255 0.420042
127 1 0.225191 0.361449 0.287776
115 1 0.126245 0.481776 0.316613
251 1 0.998595 0.361866 0.360266
29 1 0.384635 0.269595 0.317018
292 2 0.32268 0.444468 0.322287
54 1 0.384338 0.37106 0.47056
79 1 0.460755 0.429495 0.34313
82 1 0.536777 0.26816 0.385605
95 1 0.568564 0.414153 0.449303
247 1 0.618338 0.359365 0.292296
149 1 0.70019 0.316999 0.419048
122 1 0.757439 0.469218 0.434906
258 1 0.910209 0.244801 0.29361
69 1 0.788625 0.35049 0.297932
105 1 0.867904 0.299182 0.434982
302 2 0.858375 0.421248 0.376719
150 1 0.129699 0.623829 0.262343
47 1 0.158032 0.568448 0.459814
145 1 0.0276024 0.65626 0.385588
228 1 0.17205 0.703171 0.386468
224 1 0.906777 0.72911 0.458387
67 1 0.89268 0.922829 0.424331
61 1 0.263752 0.570208 0.334812
179 1 0.372021 0.518233 0.446876
109 1 0.398299 0.573054 0.263508
163 1 0.314872 0.723622 0.315106
341 2 0.376959 0.635061 0.378334
169 1 0.109365 0.340809 0.0178808
265 1 0.474027 0.717356 0.333061
2 1 0.561983 0.618849 0.259021
147 1 0.630622 0.570408 0.495477
135 1 0.499607 0.575723 0.394349
141 1 0.643714 0.502342 0.330513
266 1 0.583806 0.72664 0.467286
7 1 0.742214 0.640141 0.403869
337 2 0.603494 0.650679 0.376006
241 1 0.638608 0.758921 0.315876
25 1 0.814119 0.526206 0.30739
243 1 0.936022 0.512334 0.388491
283 1 0.875201 0.665452 0.311497
53 1 0.709463 0.913121 0.335501
205 1 0.0576946 0.819905 0.457467
121 1 0.108726 0.931645 0.363175
229 1 0.111702 0.809432 0.267535
295 2 0.183372 0.832107 0.418266
206 1 0.257194 0.869091 0.309394
98 1 0.372017 0.979779 0.272018
93 1 0.309496 0.967804 0.426658
148 1 0.472641 0.98058 0.423336
186 1 0.303435 0.792989 0.459106
52 1 0.411246 0.860536 0.359458
125 1 0.796431 0.778604 0.356102
353 2 0.502386 0.942792 0.308906
250 1 0.567016 0.863866 0.399418
296 2 0.0972912 0.695925 0.489069
31 1 0.252617 0.296038 0.0137023
102 1 0.0196096 0.97594 0.499708
199 1 0.146218 0.738982 0.0121721
139 1 0.943436 0.32673 0.0165625
293 2 0.642687 0.749368 0.00877312