ITEM: TIMESTEP
0
ITEM: NUMBER OF ATOMS
360
ITEM: BOX BOUNDS pp pp pp
0.0000000000000000e+00 6.6943295008216896e+00
0.0000000000000000e+00 6.6943295008216896e+00
0.0000000000000000e+00 6.6943295008216896e+00
ITEM: ATOMS id type xs ys zs
203 1 0.0787604 0.122447 0.0869085
59 1 0.156832 0.231386 0.198049
16 1 0.232959 0.0803076 0.14831
242 1 0.107782 0.0891498 0.233787
133 1 0.198884 0.204174 0.0240257
323 2 0.284569 0.195514 0.12395
256 1 0.377527 0.0728943 0.129923
104 1 0.373709 0.180367 0.00252934
127 1 0.486352 0.174942 0.101051
136 1 0.369998 0.225767 0.217191
290 2 0.40627 0.0200841 0.00978986
303 2 0.514465 0.211772 0.219634
205 1 0.644768 0.179566 0.193055
69 1 0.636093 0.0234614 0.173436
277 1 0.525977 0.0262031 0.0650725
181 1 0.655538 0.12985 0.0315492
352 2 0.515479 0.0775385 0.186191
238 1 0.763923 0.217932 0.107592
319 2 0.754574 0.11806 0.203318
304 2 0.993606 0.172859 0.167248
17 1 0.915297 0.13381 0.0646583
241 1 0.876959 0.16597 0.21605
279 1 0.778709 0.047393 0.0875365
51 1 0.954698 0.0296201 0.172155
103 1 0.0477241 0.283871 0.121501
98 1 0.124077 0.425286 0.118189
327 2 0.168696 0.355538 0.23315
310 2 0.155886 0.493395 0.218096
296 2 0.131866 0.335743 0.00762792
218 1 0.00493676 0.373615 0.00825114
143 1 0.427684 0.319279 0.0954604
8 1 0.260432 0.322176 0.120798
262 1 0.440174 0.473148 0.164642
55 1 0.303744 0.422003 0.244372
358 2 0.429259 0.371747 0.247908
350 2 0.338214 0.31574 0.0068708
172 1 0.555047 0.334981 0.200252
314 2 0.666981 0.394252 0.215924
171 1 0.595662 0.269858 0.0465108
147 1 0.581075 0.466529 0.100922
215 1 0.711465 0.381606 0.094223
67 1 0.751814 0.485943 0.249483
129 1 0.777832 0.315143 0.228969
79 1 0.873395 0.31493 0.0848136
307 2 0.945169 0.309254 0.206949
2 1 0.973078 0.424127 0.149635
297 2 0.836994 0.418042 0.166821
287 1 0.834367 0.441329 0.0139987
25 1 0.110395 0.574413 0.0910304
213 1 0.100019 0.676957 0.201528
33 1 0.0804845 0.732271 0.0253447
102 1 0.219181 0.702018 0.0998399
168 1 0.229349 0.613949 0.231569
269 1 0.029713 0.540231 0.225024
22 1 0.259218 0.510497 0.110679
14 1 0.376368 0.622609 0.124846
315 2 0.346646 0.55126 0.229521
75 1 0.488175 0.740179 0.140159
91 1 0.398721 0.508713 0.0170749
355 2 0.501106 0.58079 0.0786855
208 1 0.514397 0.602711 0.203101
170 1 0.609041 0.655028 0.07691
338 2 0.639681 0.53944 0.183621
288 1 0.613245 0.739474 0.230518
44 1 0.720285 0.53037 0.0581278
90 1 0.73809 0.655014 0.148145
85 1 0.96666 0.514923 0.0244217
68 1 0.848345 0.541956 0.149949
144 1 0.957613 0.65728 0.117396
336 2 0.929563 0.746416 0.24079
77 1 0.840338 0.60801 0.0156114
331 2 0.0886844 0.865034 0.0116224
182 1 0.139151 0.840696 0.125708
100 1 0.156098 0.995386 0.0472357
212 1 0.185041 0.945326 0.234871
332 2 0.0385661 0.925299 0.192836
190 1 0.0126349 0.946488 0.061921
53 1 0.227613 0.781413 0.236149
82 1 0.351634 0.765128 0.0657911
154 1 0.28953 0.945152 0.0987664
167 1 0.453059 0.889875 0.0759469
99 1 0.377175 0.822583 0.209142
47 1 0.470848 0.958466 0.208639
46 1 0.657041 0.957972 0.0346891
186 1 0.705925 0.797866 0.10841
228 1 0.591457 0.875704 0.169236
244 1 0.742741 0.918329 0.203672
257 1 0.574352 0.78943 0.0182421
225 1 0.864408 0.76133 0.0517351
326 2 0.935695 0.861537 0.00637286
93 1 0.8771 0.905032 0.112731
246 1 0.814421 0.777709 0.21702
1 1 0.985588 0.80937 0.134295
111 1 0.210977 0.152638 0.432223
23 1 0.0637146 0.11381 0.385529
294 2 0.132952 0.199653 0.316954
162 1 0.202905 0.00538843 0.373986
164 1 0.0125052 0.225907 0.276555
112 1 0.435255 0.109635 0.289255
166 1 0.261001 0.142132 0.284972
132 1 0.346693 0.218351 0.387159
237 1 0.484295 0.133081 0.427384
56 1 0.334953 0.0645157 0.43133
324 2 0.381731 0.159273 0.497996
330 2 0.556894 0.00553019 0.301413
15 1 0.707035 0.126765 0.459875
131 1 0.606422 0.149574 0.334472
201 1 0.694312 0.0215436 0.317733
263 1 0.609798 0.245776 0.460184
62 1 0.923136 0.00711024 0.406472
232 1 0.760293 0.188412 0.313017
52 1 0.837966 0.0269227 0.264555
316 2 0.797163 0.0742318 0.390862
343 2 0.972205 0.0715569 0.29371
260 1 0.896213 0.151623 0.369424
117 1 0.973478 0.249216 0.467632
45 1 0.0438985 0.378532 0.268463
10 1 0.115872 0.309338 0.415637
276 1 0.185142 0.43339 0.33061
81 1 0.0567827 0.460225 0.414372
240 1 0.246155 0.293708 0.310251
328 2 0.000684187 0.326843 0.367224
175 1 0.256996 0.288907 0.474346
272 1 0.498395 0.260034 0.333959
109 1 0.250341 0.451534 0.488956
158 1 0.370518 0.371366 0.384567
178 1 0.419658 0.481707 0.468995
264 1 0.439557 0.289878 0.496069
226 1 0.646858 0.330556 0.32595
74 1 0.579991 0.475468 0.275036
195 1 0.526218 0.398034 0.399474
251 1 0.780903 0.400972 0.377037
9 1 0.922328 0.400478 0.451531
142 1 0.885428 0.303747 0.326324
189 1 0.900419 0.446791 0.277662
37 1 0.794957 0.260572 0.446349
283 1 0.130123 0.589643 0.344729
146 1 0.122846 0.722604 0.450748
71 1 0.00646985 0.697891 0.345854
302 2 0.15041 0.718253 0.314087
211 1 0.205428 0.596714 0.495323
65 1 0.378856 0.67134 0.280749
173 1 0.255472 0.693954 0.386865
268 1 0.445163 0.508858 0.317143
151 1 0.284959 0.538528 0.358149
329 2 0.392116 0.606749 0.389006
54 1 0.496863 0.638903 0.479889
259 1 0.666502 0.506699 0.410361
58 1 0.682082 0.616428 0.289332
299 2 0.541451 0.531189 0.40781
339 2 0.648113 0.639206 0.415697
155 1 0.551472 0.638195 0.338032
185 1 0.813772 0.504854 0.481668
83 1 0.924789 0.702074 0.491917
305 2 0.828767 0.518894 0.352076
325 2 0.77599 0.697782 0.294638
13 1 0.886547 0.615262 0.286239
159 1 0.939544 0.558136 0.422875
4 1 0.785009 0.631973 0.405366
38 1 0.0755037 0.957274 0.471265
286 1 0.0793388 0.824415 0.268678
141 1 0.0448827 0.965255 0.320581
230 1 0.182123 0.847024 0.385727
66 1 0.331896 0.86256 0.366829
285 1 0.401287 0.758789 0.444814
235 1 0.480327 0.772744 0.321693
197 1 0.444601 0.965835 0.379195
42 1 0.334742 0.987217 0.261778
80 1 0.521559 0.867743 0.457275
347 2 0.567116 0.761951 0.414828
318 2 0.707392 0.819678 0.269256
224 1 0.600599 0.992782 0.43372
12 1 0.679975 0.863773 0.485418
34 1 0.605631 0.879102 0.316247
271 1 0.688289 0.759698 0.371366
87 1 0.78058 0.906613 0.356614
18 1 0.91375 0.89823 0.270431
236 1 0.859494 0.774815 0.374335
120 1 0.991636 0.830873 0.407801
88 1 0.780078 0.988602 0.48965
161 1 0.144648 0.144952 0.688177
234 1 0.120381 0.220965 0.558996
105 1 0.0241509 0.104483 0.545058
275 1 0.179474 0.0644871 0.560491
254 1 0.283268 0.162019 0.568022
86 1 0.448636 0.146094 0.613535
63 1 0.340231 0.0203358 0.62519
301 2 0.404869 0.0915822 0.726906
149 1 0.450703 0.0262136 0.523178
119 1 0.308127 0.157605 0.7351
198 1 0.502447 0.00072756 0.652654
11 1 0.583878 0.110573 0.542055
21 1 0.748406 0.0797621 0.620053
176 1 0.596672 0.118977 0.692706
317 2 0.727429 0.181864 0.703787
41 1 0.702808 0.228894 0.58992
204 1 0.995955 0.1232 0.725639
40 1 0.868557 0.120136 0.531975
106 1 0.852886 0.188518 0.688567
61 1 0.964913 0.241993 0.615776
340 2 0.912698 0.0844602 0.636548
156 1 0.0753142 0.296572 0.71562
210 1 0.214395 0.354951 0.618032
313 2 0.0488207 0.437861 0.658053
202 1 0.0580944 0.375486 0.55061
29 1 0.143181 0.498018 0.595817
95 1 0.154343 0.430535 0.745947
334 2 0.355272 0.376647 0.543808
20 1 0.353475 0.283583 0.636924
177 1 0.455672 0.416661 0.616783
5 1 0.308023 0.385676 0.747745
94 1 0.312838 0.493923 0.632634
130 1 0.48081 0.341863 0.742205
249 1 0.550313 0.269529 0.615801
341 2 0.551259 0.375745 0.542301
174 1 0.593924 0.407334 0.670301
76 1 0.683104 0.39052 0.523533
7 1 0.771492 0.322067 0.713463
273 1 0.783998 0.478435 0.637886
255 1 0.93414 0.37713 0.662943
200 1 0.821769 0.349434 0.568629
312 2 0.843885 0.419243 0.746247
122 1 0.129577 0.678017 0.61166
194 1 0.0504943 0.554659 0.694854
169 1 0.207503 0.582581 0.727595
179 1 0.054017 0.59607 0.508635
354 2 0.254163 0.622979 0.61249
191 1 0.346259 0.645516 0.703854
27 1 0.475738 0.576133 0.632893
163 1 0.442973 0.726744 0.588182
84 1 0.364908 0.616132 0.5334
32 1 0.564877 0.500337 0.537418
348 2 0.5841 0.640322 0.602702
227 1 0.696136 0.579726 0.570788
223 1 0.613184 0.565354 0.706075
239 1 0.523082 0.703745 0.712836
229 1 0.620862 0.722359 0.514268
152 1 0.681192 0.704297 0.657825
267 1 0.952925 0.511055 0.586824
222 1 0.900916 0.545116 0.734976
49 1 0.838582 0.631526 0.613053
187 1 0.983403 0.685991 0.649891
26 1 0.768292 0.730631 0.52003
148 1 0.225265 0.750756 0.713784
357 2 0.0355499 0.763122 0.545981
337 2 0.0867421 0.795376 0.689429
250 1 0.0565661 0.99918 0.649882
321 2 0.196753 0.95582 0.635982
116 1 0.140178 0.853269 0.579317
165 1 0.248571 0.935267 0.50157
97 1 0.259031 0.755161 0.524548
344 2 0.32563 0.762046 0.632223
73 1 0.296498 0.877926 0.668625
353 2 0.429849 0.893256 0.668726
139 1 0.381042 0.876524 0.541388
128 1 0.64388 0.969085 0.586541
160 1 0.543432 0.844519 0.621506
125 1 0.653607 0.822096 0.728206
351 2 0.741705 0.963186 0.663045
126 1 0.868476 0.966982 0.648364
289 2 0.955752 0.986302 0.529423
335 2 0.887631 0.758751 0.600743
188 1 0.833794 0.755022 0.723113
96 1 0.988612 0.850915 0.636951
150 1 0.770305 0.853414 0.612638
293 2 0.897264 0.865849 0.721904
280 1 0.877996 0.869725 0.505234
265 1 0.239655 0.0179187 0.759171
184 1 0.0515812 0.222533 0.984012
50 1 0.225759 0.135498 0.85953
101 1 0.0908187 0.0355399 0.815328
252 1 0.0376745 0.0642009 0.954834
3 1 0.0714374 0.188109 0.838919
295 2 0.162206 0.0836262 0.947044
124 1 0.286997 0.0646289 0.988787
216 1 0.490245 0.19034 0.762674
107 1 0.397205 0.108275 0.857572
291 2 0.305449 0.0182873 0.870924
282 1 0.523562 0.130297 0.943255
28 1 0.518162 0.0346299 0.803598
360 2 0.609202 0.020377 0.901283
24 1 0.654378 0.12172 0.832467
134 1 0.77784 0.230531 0.830274
278 1 0.787855 0.0766361 0.767064
137 1 0.915995 0.0995325 0.853769
220 1 0.778616 0.131388 0.93923
281 1 0.896694 0.237374 0.9484
217 1 0.872722 0.00010497 0.970845
196 1 0.21553 0.27408 0.763403
113 1 0.139503 0.307539 0.885182
300 2 0.235379 0.400725 0.86826
183 1 0.105566 0.457789 0.915923
145 1 0.241175 0.400233 0.988201
308 2 0.00405954 0.305278 0.893528
193 1 0.443755 0.49849 0.760995
30 1 0.296127 0.276958 0.900562
138 1 0.37851 0.417208 0.889445
274 1 0.444496 0.278888 0.889608
298 2 0.359044 0.269941 0.771389
311 2 0.474692 0.482136 0.896696
221 1 0.528415 0.388061 0.975608
153 1 0.632816 0.256888 0.901001
209 1 0.57251 0.443418 0.830044
72 1 0.677154 0.419898 0.930777
19 1 0.627736 0.276972 0.751836
64 1 0.714015 0.452148 0.77896
333 2 0.706943 0.34177 0.833843
118 1 0.937211 0.261013 0.797432
43 1 0.995805 0.412105 0.816499
6 1 0.829327 0.374279 0.860739
359 2 0.943105 0.464501 0.911261
123 1 0.76418 0.298031 0.973713
261 1 0.0652517 0.677806 0.795234
247 1 0.124644 0.625491 0.933303
345 2 0.111708 0.557123 0.816458
245 1 0.240331 0.521552 0.861036
114 1 0.237105 0.687175 0.85253
292 2 0.195176 0.526393 0.97548
207 1 0.46506 0.671526 0.987633
322 2 0.318544 0.512741 0.757424
320 2 0.445727 0.68067 0.802931
140 1 0.367357 0.590923 0.860165
108 1 0.287068 0.627265 0.987873
36 1 0.558319 0.540196 0.969794
199 1 0.7284 0.709767 0.965267
306 2 0.60166 0.683205 0.933271
78 1 0.531234 0.597616 0.842852
70 1 0.640989 0.693719 0.814854
248 1 0.683515 0.575812 0.895538
356 2 0.97393 0.635909 0.984404
135 1 0.766875 0.612265 0.752254
266 1 0.987736 0.568111 0.860349
346 2 0.936711 0.701302 0.801909
115 1 0.823337 0.517272 0.879572
39 1 0.844948 0.668654 0.871446
258 1 0.236818 0.825004 0.991685
219 1 0.136686 0.892307 0.755037
180 1 0.127004 0.786002 0.883498
253 1 0.189531 0.949081 0.906182
243 1 0.0108188 0.911316 0.916291
349 2 0.450325 0.802715 0.974739
233 1 0.392724 0.790892 0.752768
110 1 0.362675 0.753038 0.90491
92 1 0.385581 0.966014 0.773245
342 2 0.425004 0.864916 0.837718
31 1 0.362843 0.926368 0.93447
157 1 0.267042 0.84541 0.824293
89 1 0.661246 0.985589 0.76062
270 1 0.737324 0.987392 0.905314
309 2 0.735587 0.774848 0.830839
192 1 0.521885 0.892951 0.759767
48 1 0.647975 0.850837 0.893927
121 1 0.518473 0.916863 0.926259
231 1 0.514586 0.763045 0.868023
214 1 0.771148 0.863777 0.99471
35 1 0.990096 0.816508 0.78359
206 1 0.943024 0.974219 0.783265
57 1 0.971447 0.753021 0.931886
284 1 0.788408 0.907345 0.766354
60 1 0.865108 0.846666 0.879769
ITEM: TIMESTEP
300000
ITEM: NUMBER OF ATOMS
360
ITEM: BOX BOUNDS pp pp pp
0.0000000000000000e+00 6.6943295008216896e+00
0.0000000000000000e+00 6.6943295008216896e+00
0.0000000000000000e+00 6.6943295008216896e+00
ITEM: ATOMS id type xs ys zs
93 1 0.207314 0.182507 0.137604
17 1 0.0459315 0.0871567 0.079274
182 1 0.176073 0.971 0.0849348
201 1 0.916507 0.977903 0.448574
142 1 0.0028381 0.243972 0.137106
190 1 0.305708 0.0426616 0.135548
291 2 0.402333 0.140027 0.170085
104 1 0.342055 0.17321 0.0571392
154 1 0.484714 0.0395743 0.186198
107 1 0.329639 0.238389 0.230289
158 1 0.49329 0.176246 0.262453
155 1 0.591257 0.767072 0.288232
205 1 0.617273 0.139231 0.185681
47 1 0.505158 0.165405 0.0805317
171 1 0.73412 0.117328 0.0861336
274 1 0.57046 0.0146333 0.0590045
307 2 0.760493 0.185788 0.192594
226 1 0.765074 0.0627608 0.246898
51 1 0.885552 0.160995 0.174695
319 2 0.868922 0.143872 0.0570534
238 1 0.791358 0.270666 0.0884713
123 1 0.929726 0.00684914 0.125687
12 1 0.939551 0.893968 0.314672
124 1 0.149183 0.416824 0.190643
327 2 0.136955 0.300606 0.115935
144 1 0.0431377 0.368058 0.0663344
81 1 0.0271264 0.512696 0.163767
130 1 0.272388 0.323921 0.09535
277 1 0.433341 0.283106 0.127021
55 1 0.403024 0.43318 0.134055
276 1 0.261214 0.498777 0.118438
178 1 0.298212 0.388056 0.245107
30 1 0.934102 0.269153 0.000105479
355 2 0.512969 0.492668 0.208581
220 1 0.630566 0.280289 0.0869196
72 1 0.565923 0.395288 0.145636
147 1 0.635515 0.534523 0.158591
13 1 0.644857 0.431796 0.022127
136 1 0.612542 0.285465 0.244213
280 1 0.704107 0.825301 0.478277
287 1 0.718841 0.390181 0.160603
181 1 0.902608 0.383524 0.111293
2 1 0.879719 0.481279 0.231634
225 1 0.913829 0.528433 0.0329193
79 1 0.841363 0.304342 0.230994
328 2 0.961184 0.262651 0.262599
34 1 0.535425 0.786099 0.473856
339 2 0.741695 0.502579 0.234065
290 2 0.404085 0.359932 0.0300051
41 1 0.773782 0.206539 0.494716
213 1 0.153533 0.593284 0.159377
25 1 0.0515819 0.61574 0.0420508
325 2 0.0754535 0.701808 0.138065
57 1 0.18233 0.722851 0.244162
281 1 0.119769 0.489081 0.0135632
336 2 0.226242 0.692485 0.109378
146 1 0.0397993 0.619058 0.264105
269 1 0.315974 0.630602 0.177594
208 1 0.332567 0.662821 0.0334821
349 2 0.384511 0.531275 0.0362368
58 1 0.468111 0.57879 0.129685
75 1 0.449013 0.753516 0.0789614
248 1 0.647073 0.620024 0.0187031
295 2 0.461715 0.19953 0.49575
186 1 0.57238 0.690062 0.150163
338 2 0.556071 0.53075 0.0467286
318 2 0.629919 0.744388 0.0548205
310 2 0.724144 0.67607 0.130154
170 1 0.801881 0.658477 0.0353242
135 1 0.782096 0.513847 0.102514
68 1 0.92191 0.620515 0.154635
236 1 0.785864 0.632513 0.239168
69 1 0.823764 0.756117 0.154826
141 1 0.0501253 0.977706 0.213733
1 1 0.0332449 0.905981 0.0669579
102 1 0.157434 0.811699 0.113158
18 1 0.033633 0.792316 0.224048
122 1 0.178917 0.898023 0.240472
337 2 0.280894 0.922527 0.157422
99 1 0.30432 0.794739 0.163926
244 1 0.404502 0.910369 0.0973102
167 1 0.310889 0.823775 0.00792636
46 1 0.504579 0.868757 0.201057
42 1 0.376179 0.937934 0.241413
279 1 0.717255 0.93617 0.0800999
197 1 0.66072 0.952527 0.217061
87 1 0.681585 0.802044 0.159892
52 1 0.565468 0.856755 0.0541443
308 2 0.784781 0.939616 0.484259
352 2 0.800213 0.01695 0.135019
90 1 0.956928 0.753373 0.0852256
241 1 0.82529 0.917478 0.204245
331 2 0.944473 0.895136 0.175746
258 1 0.86649 0.885981 0.0505153
103 1 0.0393361 0.145184 0.257766
23 1 0.178583 0.0829871 0.442915
9 1 0.0395211 0.261469 0.371386
164 1 0.184042 0.0607599 0.232263
62 1 0.0122361 0.108542 0.408087
332 2 0.0983105 0.0590993 0.32638
16 1 0.223748 0.174533 0.334646
242 1 0.365188 0.0842964 0.290369
149 1 0.345698 0.047729 0.447227
202 1 0.0948861 0.526092 0.48278
112 1 0.411153 0.244565 0.377126
96 1 0.849565 0.812099 0.43511
343 2 0.537413 0.00333839 0.446244
151 1 0.312959 0.884801 0.467489
272 1 0.477579 0.109139 0.400282
172 1 0.717007 0.189078 0.32614
129 1 0.636382 0.0634459 0.334663
288 1 0.487035 0.980035 0.327778
263 1 0.782164 0.0775876 0.412518
232 1 0.914896 0.0448992 0.278257
40 1 0.883346 0.188373 0.336517
59 1 0.0823533 0.224994 0.00200058
10 1 0.00532081 0.370543 0.221462
145 1 0.143074 0.280094 0.244073
323 2 0.239217 0.223484 0.0109608
133 1 0.164615 0.245464 0.470316
45 1 0.139016 0.401978 0.357917
189 1 1.00677 0.497207 0.35756
326 2 0.102779 0.502871 0.270399
175 1 0.276824 0.328095 0.378978
262 1 0.452416 0.359325 0.27057
350 2 0.494726 0.512821 0.360373
5 1 0.389921 0.4425 0.415414
246 1 0.753033 0.794053 0.303068
259 1 0.522547 0.357599 0.411656
303 2 0.561745 0.235591 0.373694
358 2 0.734547 0.448234 0.428301
22 1 0.598863 0.451112 0.29883
264 1 0.663701 0.311627 0.399061
4 1 0.759741 0.40001 0.308387
251 1 0.915234 0.25506 0.466592
255 1 0.799034 0.355851 0.476653
299 2 0.807277 0.283877 0.367083
67 1 0.909966 0.357701 0.354813
15 1 0.753619 0.943288 0.352135
195 1 0.612948 0.141818 0.462118
254 1 0.248627 0.490862 0.446875
283 1 0.227665 0.526034 0.276605
109 1 0.141718 0.640836 0.374406
354 2 0.231366 0.713515 0.436643
187 1 0.037443 0.750186 0.387977
282 1 0.425113 0.0506685 0.0149219
71 1 0.305995 0.643798 0.349633
240 1 0.405452 0.536927 0.268834
53 1 0.439151 0.717434 0.226252
14 1 0.483174 0.658952 0.388892
54 1 0.594696 0.5303 0.44088
330 2 0.664497 0.630531 0.245926
8 1 0.546804 0.594898 0.26846
26 1 0.633971 0.673131 0.408299
74 1 0.702908 0.556196 0.342453
37 1 0.659558 0.993007 0.489502
159 1 0.844952 0.501167 0.380146
305 2 0.901649 0.604003 0.312813
271 1 0.816491 0.659597 0.403215
83 1 0.899288 0.737777 0.294973
267 1 0.967468 0.629058 0.419147
302 2 0.181429 0.947168 0.455624
211 1 0.164038 0.819101 0.42307
286 1 0.0657317 0.947504 0.401299
212 1 0.248672 0.972656 0.34672
347 2 0.0829322 0.856176 0.320616
342 2 0.0595191 0.788731 0.0261752
173 1 0.370807 0.742606 0.466038
230 1 0.296593 0.801472 0.319808
66 1 0.460235 0.91941 0.480357
324 2 0.370704 0.96358 0.364783
235 1 0.454054 0.821339 0.344589
228 1 0.603082 0.896858 0.376101
200 1 0.94986 0.448956 0.499363
356 2 0.929714 0.653185 0.00769342
210 1 0.372051 0.587301 0.481616
313 2 0.867358 0.565766 0.49199
199 1 0.749878 0.795533 0.0135957
6 1 0.817855 0.0332691 -0.00706026
253 1 0.143799 0.169106 0.750127
165 1 0.198999 0.150158 0.588591
297 2 0.0810778 0.118075 0.649625
38 1 0.232313 -0.0129095 0.560181
111 1 0.0390557 0.169881 0.539988
63 1 0.130511 1.00852 0.678364
204 1 0.0489047 0.0242271 0.536545
162 1 0.380436 0.184309 0.646334
344 2 0.418709 0.053377 0.700226
139 1 0.27461 0.0828196 0.702102
353 2 0.31162 0.0878679 0.555267
86 1 0.534065 0.108685 0.668288
234 1 0.678471 0.177369 0.63821
127 1 0.673653 0.0250911 0.707431
301 2 0.62896 0.0780711 0.581268
341 2 0.511546 0.235614 0.711501
359 2 0.763426 0.110842 0.740336
152 1 0.95698 0.768265 0.800015
61 1 0.989085 0.204018 0.68785
250 1 0.946948 0.0533195 0.667409
126 1 0.760177 0.0488891 0.59245
21 1 0.837153 0.177834 0.637123
176 1 0.815953 0.99353 0.750198
268 1 0.485608 0.462544 0.975907
265 1 0.1055 0.278077 0.641162
194 1 0.0390144 0.426395 0.63428
36 1 0.190331 0.420566 0.680911
117 1 0.183562 0.380875 0.522969
56 1 0.263066 0.294851 0.632389
196 1 0.408256 0.320196 0.732498
132 1 0.426379 0.318809 0.523697
94 1 0.331251 0.446393 0.574023
29 1 0.380004 0.464105 0.723764
237 1 0.545098 0.25177 0.588593
153 1 0.530675 0.389392 0.650101
278 1 0.633908 0.302899 0.728274
134 1 0.686126 0.441847 0.686771
76 1 0.648665 0.392164 0.532496
312 2 0.656982 0.260815 0.523544
7 1 0.753456 0.311254 0.619929
266 1 0.922164 0.322961 0.61128
43 1 0.833585 0.469966 0.600895
106 1 0.82989 0.404672 0.73876
245 1 0.948086 0.526999 0.719214
298 2 0.877025 0.872727 0.846014
320 2 0.196009 0.504636 0.574565
148 1 0.0907353 0.567421 0.648452
35 1 0.0790495 0.726857 0.538784
193 1 0.263062 0.559285 0.667623
27 1 0.471826 0.48746 0.556508
334 2 0.391168 0.567331 0.618165
163 1 0.495793 0.546132 0.69576
218 1 0.802313 0.387499 0.990446
191 1 0.337374 0.676762 0.608365
285 1 0.487206 0.653468 0.547825
223 1 0.477176 0.733256 0.700686
335 2 0.724156 0.682162 0.515329
32 1 0.61022 0.561621 0.589385
333 2 0.573437 0.655111 0.670746
49 1 0.748406 0.592898 0.64061
345 2 1.00175 0.685551 0.650616
222 1 0.842264 0.686225 0.557393
39 1 0.873133 0.650699 0.719054
261 1 0.963907 0.587923 0.572568
180 1 0.277047 0.97054 0.964695
97 1 0.24496 0.774771 0.555963
116 1 0.127967 0.886263 0.567958
346 2 0.187068 0.819795 0.685144
101 1 0.0549045 0.798496 0.68658
260 1 0.904875 0.106265 0.512594
84 1 0.266132 0.920838 0.717304
121 1 0.378538 0.973268 0.619306
229 1 0.424498 0.8191 0.592957
351 2 0.295406 0.88008 0.601147
233 1 0.418041 0.875224 0.736178
128 1 0.521832 0.98569 0.767524
227 1 0.621075 0.730624 0.5878
80 1 0.561174 0.971651 0.614682
168 1 0.286249 0.432196 0.970482
11 1 0.715551 0.905123 0.62115
160 1 0.570804 0.845554 0.682031
321 2 0.015772 0.923448 0.629111
150 1 0.755142 0.767424 0.663117
317 2 0.811218 0.869736 0.719499
357 2 0.825801 0.81577 0.562449
88 1 0.911755 0.791656 0.652264
224 1 0.866168 0.939755 0.609198
60 1 0.969737 0.911134 0.747674
206 1 0.202634 0.0539758 0.835213
3 1 0.0428402 0.0639127 0.791489
304 2 0.085406 0.138843 0.904582
113 1 0.0124212 0.228125 0.855301
100 1 0.0724931 0.0111341 0.935939
217 1 0.181513 0.212864 0.889227
89 1 0.798946 0.774898 0.817958
284 1 0.882418 0.778256 0.948175
119 1 0.297033 0.20756 0.782611
73 1 0.450266 0.137673 0.792509
50 1 0.314334 0.115294 0.927429
216 1 0.45324 0.188091 0.936084
115 1 0.757911 0.238545 0.791363
256 1 0.613622 0.165906 0.809965
48 1 0.630439 0.144357 0.971558
198 1 0.533212 0.054536 0.89985
360 2 0.688168 0.0243029 0.98094
270 1 0.73583 0.0787702 0.861222
292 2 0.920425 0.409434 0.982161
243 1 0.958732 0.12747 0.956231
105 1 0.87704 0.131426 0.793386
24 1 0.809047 0.184428 0.948388
138 1 0.166551 0.346369 0.977248
203 1 0.116492 0.337133 0.790134
85 1 0.0206168 0.384429 0.922188
296 2 0.180414 0.457572 0.890405
110 1 0.0978704 0.496689 0.785394
322 2 0.398089 0.272613 0.84456
184 1 0.330023 0.276019 0.950523
161 1 0.266866 0.345393 0.832368
177 1 0.401205 0.400563 0.863002
131 1 0.45922 0.0801674 0.543197
137 1 0.918409 -0.00580812 0.866802
19 1 0.517351 0.288139 0.833478
174 1 0.552149 0.435708 0.793969
215 1 0.697646 0.41994 0.844463
311 2 0.597908 0.387561 0.907472
221 1 0.682898 0.289379 0.917387
289 2 0.886478 0.258685 0.740243
118 1 0.973081 0.361595 0.768709
316 2 0.683393 0.803399 0.88267
156 1 0.880105 0.315823 0.8753
247 1 0.900851 0.467546 0.866346
157 1 0.167251 0.694423 0.676829
95 1 0.0113934 0.56173 0.894829
329 2 0.22603 0.640689 0.771653
98 1 0.171684 0.600482 0.882157
114 1 0.044328 0.652864 0.767848
140 1 0.0318559 0.714851 0.927438
306 2 0.239679 0.558888 0.979731
91 1 0.263764 0.498144 0.809114
348 2 0.483429 0.520847 0.8508
143 1 0.360894 0.568452 0.909779
108 1 0.283448 0.706152 0.883667
78 1 0.359724 0.627302 0.773903
125 1 0.514407 0.64526 0.827982
273 1 0.644864 0.583717 0.749066
64 1 0.606322 0.535722 0.89655
70 1 0.712844 0.671931 0.89577
309 2 0.734529 0.668288 0.749341
120 1 0.985859 0.85279 0.506608
183 1 0.763907 0.533784 0.939421
77 1 0.78424 0.543521 0.784645
188 1 0.873741 0.640572 0.876306
219 1 0.993123 0.874018 0.927228
33 1 0.146366 0.872649 0.957227
239 1 0.152503 0.766728 0.808387
275 1 0.107556 0.912635 0.808499
340 2 0.598705 0.883048 0.545646
92 1 0.359046 0.00880787 0.815092
315 2 0.39763 0.75223 0.80037
169 1 0.297919 0.767267 0.729384
192 1 0.77747 0.916361 0.902261
207 1 0.432295 0.761115 0.922175
31 1 0.294785 0.858523 0.86734
257 1 0.440674 0.921417 0.921683
44 1 0.585334 0.749171 0.947878
314 2 0.636612 0.010751 0.826348
28 1 0.642474 0.744242 0.771278
20 1 0.68845 0.890251 0.779294
231 1 0.545011 0.845179 0.841722
214 1 0.631837 0.917821 0.936102
293 2 0.957851 0.983265 0.992128
209 1 0.491647 0.619813 0.987629
65 1 0.211058 0.622163 0.520886
166 1 0.31794 0.206881 0.494082
179 1 0.0445984 0.329911 0.504381
252 1 0.176655 0.103826 0.996419
300 2 0.307871 0.344143 0.510082
249 1 0.523138 0.313929 0.986449
294 2 0.96136 0.724973 0.513049
185 1 0.73723 0.549443 0.491684
82 1 0.171704 0.716165 0.996989
ITEM: TIMESTEP
600000
ITEM: NUMBER OF ATOMS
360
ITEM: BOX BOUNDS pp pp pp
0.0000000000000000e+00 6.6943295008216896e+00
0.0000000000000000e+00 6.6943295008216896e+00
0.0000000000000000e+00 6.6943295008216896e+00
ITEM: ATOMS id type xs ys zs
178 1 0.196155 0.133596 0.0502503
299 2 0.126283 0.17364 0.174956
124 1 0.0352068 0.180634 0.0837232
6 1 0.0936989 0.0328677 0.113852
293 2 0.988135 0.0568106 0.0445577
133 1 0.0342749 0.110398 0.256517
38 1 0.256446 0.20774 0.185535
306 2 0.441832 0.0395607 0.146585
288 1 0.405947 0.166935 0.155324
164 1 0.399349 0.091937 0.0219344
167 1 0.301536 0.0314349 0.122986
138 1 0.322728 0.227054 0.0328336
209 1 0.51604 0.211314 0.0326461
277 1 0.539634 0.070523 0.0696024
300 2 0.549291 0.175105 0.153262
226 1 0.67021 0.143189 0.064629
10 1 0.651435 0.0877066 0.211713
135 1 0.765136 0.181691 0.223348
205 1 0.790902 0.0363999 0.084779
238 1 0.910459 0.161433 0.159795
291 2 0.797008 0.0563547 0.223559
72 1 0.794136 0.227225 0.061593
56 1 0.061861 0.419002 0.0163105
302 2 0.0278355 0.316913 0.0904868
189 1 0.0173901 0.441805 0.158298
91 1 0.19449 0.326025 0.0352397
81 1 0.123362 0.312464 0.176893
30 1 0.182412 0.459582 0.141599
45 1 0.989096 0.256721 0.235031
168 1 0.324973 0.362165 0.147094
16 1 0.481534 0.318016 0.154686
199 1 0.487909 0.462624 0.101313
310 2 0.375956 0.30282 0.249928
352 2 0.819893 0.889571 0.391297
283 1 0.403237 0.437719 0.263191
290 2 0.268893 0.440668 0.244907
170 1 0.620196 0.420256 0.172821
355 2 0.685342 0.2771 0.0155249
79 1 0.642618 0.260949 0.141532
181 1 0.750088 0.375833 0.056281
318 2 0.60492 0.479443 0.0454456
13 1 0.591976 0.355436 0.0221275
330 2 0.743977 0.478655 0.184353
62 1 0.900446 0.33812 0.117218
225 1 0.862811 0.505149 0.156603
83 1 0.776466 0.339132 0.202289
111 1 0.0838851 0.172746 0.461037
217 1 0.306099 0.442099 0.00459872
146 1 0.102981 0.609936 0.191919
95 1 0.0191892 0.572331 0.0437766
315 2 0.215559 0.595497 0.147595
98 1 0.0110932 0.715318 0.114559
108 1 0.210652 0.563989 0.0239335
102 1 0.17201 0.70453 0.0783257
75 1 0.334792 0.515186 0.139506
207 1 0.324528 0.67816 0.111981
346 2 0.342528 0.610044 0.225096
208 1 0.224454 0.738857 0.229711
257 1 0.502901 0.729657 0.15774
89 1 0.502024 0.615087 0.0485254
87 1 0.466635 0.580052 0.202303
279 1 0.617964 0.575258 0.140914
316 2 0.615991 0.698654 0.0980093
12 1 0.653231 0.70404 0.219742
43 1 0.75391 0.703808 0.0465996
360 2 0.747348 0.635122 0.15295
325 2 0.977702 0.590557 0.171657
70 1 0.877346 0.618473 0.0400868
68 1 0.863868 0.675058 0.200481
106 1 0.743791 0.525388 0.0583519
82 1 0.102179 0.815893 0.1867
230 1 0.183719 0.919048 0.0729515
305 2 0.0419189 0.912667 0.121895
142 1 0.0719209 0.94832 0.25009
267 1 0.891902 0.804681 0.329763
336 2 0.245821 0.809338 0.100577
332 2 0.492665 0.849555 0.110597
212 1 0.256454 0.900851 0.209141
244 1 0.427215 0.946179 0.0499871
99 1 0.361091 0.827719 0.133612
218 1 0.693025 0.0180448 0.486759
289 2 0.65412 0.998625 0.108284
190 1 0.552936 0.952536 0.170592
220 1 0.722816 0.948714 0.202805
284 1 0.64795 0.82769 0.12801
232 1 0.937444 0.0157016 0.173507
47 1 0.773004 0.882093 0.0510234
9 1 0.92647 0.931702 0.0361539
57 1 0.938788 0.845689 0.179029
77 1 0.890912 0.779745 0.0414503
69 1 0.788714 0.800946 0.182587
343 2 0.834022 0.931302 0.152771
249 1 0.580671 0.924151 0.0289639
23 1 0.191352 0.0649595 0.230415
123 1 0.150292 0.193365 0.319208
211 1 0.118653 0.0448048 0.371035
312 2 0.0114475 0.199783 0.344213
42 1 0.486678 0.082207 0.254999
165 1 0.259879 0.119698 0.436308
97 1 0.322514 0.0255989 0.313875
272 1 0.342891 0.18334 0.307902
129 1 0.479867 0.151247 0.410944
149 1 0.510278 0.228672 0.28105
158 1 0.614381 0.110056 0.357147
242 1 0.54976 0.0107494 0.45359
40 1 0.848094 0.00485126 0.457619
4 1 0.747031 0.168515 0.421406
144 1 0.888709 0.109384 0.300676
204 1 0.938913 0.138957 0.435953
58 1 0.835185 0.262071 0.325669
358 2 0.840106 0.276754 0.464905
297 2 0.0475893 0.358131 0.315709
55 1 0.125761 0.335813 0.4281
5 1 0.0183978 0.445357 0.40647
276 1 0.127386 0.446318 0.287165
213 1 0.975543 0.303366 0.404359
235 1 0.264387 0.270886 0.431507
117 1 0.245817 0.323824 0.288155
116 1 0.284079 0.459026 0.3966
264 1 0.405125 0.305355 0.371694
240 1 0.482354 0.442997 0.432201
347 2 0.347961 0.369683 0.459682
112 1 0.657592 0.243502 0.301132
259 1 0.716416 0.332568 0.443299
262 1 0.541392 0.380322 0.299732
166 1 0.554571 0.288156 0.431207
309 2 0.617937 0.445351 0.407865
22 1 0.70587 0.405028 0.314797
67 1 0.915361 0.385728 0.266072
195 1 0.848052 0.405231 0.400167
308 2 0.82165 0.464499 0.297024
287 1 0.242668 0.5653 0.278204
132 1 0.154594 0.532498 0.421648
326 2 0.0705717 0.571114 0.324673
261 1 0.148727 0.674696 0.35483
147 1 0.0077284 0.616917 0.424079
200 1 0.00409728 0.707586 0.277435
46 1 0.390827 0.739913 0.267152
328 2 0.282407 0.729331 0.341828
186 1 0.41111 0.57158 0.343319
53 1 0.280721 0.631422 0.412549
254 1 0.403265 0.744273 0.424954
74 1 0.609002 0.52832 0.283118
155 1 0.530778 0.677156 0.314591
246 1 0.686903 0.68759 0.38188
8 1 0.594788 0.564049 0.434358
280 1 0.564181 0.741719 0.446664
52 1 0.554834 0.820225 0.273057
335 2 0.919687 0.719903 0.434906
273 1 0.750871 0.57938 0.263874
2 1 0.953915 0.529854 0.288985
236 1 0.751517 0.522482 0.413311
263 1 0.852795 0.641632 0.35548
294 2 0.88032 0.527501 0.412967
109 1 0.226986 0.790534 0.459376
349 2 0.201029 0.95271 0.30487
201 1 0.0804664 0.906093 0.448422
35 1 0.0279535 0.763274 0.41746
327 2 0.0206792 0.847415 0.298549
187 1 0.148965 0.828341 0.32905
173 1 0.242504 0.943267 0.457694
197 1 0.418896 0.92778 0.230794
229 1 0.383907 0.00542261 0.470832
354 2 0.443454 0.986639 0.358842
71 1 0.321204 0.845921 0.340411
27 1 0.484791 0.87314 0.407141
66 1 0.751102 0.023537 0.334093
154 1 0.614189 0.948141 0.321283
228 1 0.729893 0.828793 0.312179
34 1 0.659251 0.875055 0.446325
28 1 0.799847 0.771682 0.443028
126 1 0.923218 0.87419 0.471745
122 1 0.965056 0.982098 0.372175
15 1 0.859094 0.943755 0.278737