ITEM: TIMESTEP
0
ITEM: NUMBER OF ATOMS
360
ITEM: BOX BOUNDS pp pp pp
0.0000000000000000e+00 6.6943295008216896e+00
0.0000000000000000e+00 6.6943295008216896e+00
0.0000000000000000e+00 6.6943295008216896e+00
ITEM: ATOMS id type xs ys zs
223 1 0.196743 0.212021 0.158663
76 1 0.178777 0.127103 0.0352226
155 1 0.243659 0.0273393 0.138561
319 2 0.130421 0.247229 0.0467518
125 1 0.0836034 0.099336 0.239028
133 1 0.0462933 0.243999 0.184606
10 1 0.0253813 0.155616 0.0610247
113 1 0.34914 0.235553 0.132187
111 1 0.404871 0.0985835 0.0814177
310 2 0.442251 0.136147 0.201533
328 2 0.313723 0.183239 0.0282996
139 1 0.313498 0.132079 0.232252
320 2 0.31828 0.00742513 0.0488708
112 1 0.513191 0.219125 0.115697
245 1 0.63281 0.14599 0.0600799
236 1 0.722824 0.201643 0.204252
31 1 0.558551 0.134931 0.243267
110 1 0.541365 0.0519349 0.12259
263 1 0.681487 0.0345173 0.194225
188 1 0.681496 0.00873818 0.0439387
240 1 0.884253 0.212938 0.174479
210 1 0.791069 0.0993948 0.113748
176 1 0.943442 0.0488191 0.203873
238 1 0.909533 0.0557975 0.0233734
174 1 0.129392 0.357894 0.1241
168 1 0.236445 0.469975 0.0581719
170 1 0.0120222 0.31613 0.0550422
15 1 0.24967 0.303686 0.0369271
334 2 0.094264 0.451655 0.0443179
161 1 0.272318 0.361991 0.176026
266 1 0.383101 0.426131 0.0921722
262 1 0.477782 0.35628 0.196657
326 2 0.426644 0.29666 0.0462478
196 1 0.524023 0.377291 0.0376803
131 1 0.628456 0.413122 0.186684
165 1 0.636331 0.285308 0.105464
175 1 0.737779 0.398625 0.0620053
315 2 0.576139 0.268385 0.239698
97 1 0.774925 0.255027 0.0785757
51 1 0.972228 0.465302 0.0601729
218 1 0.781671 0.360661 0.202668
340 2 0.854834 0.356367 0.0605017
281 1 0.923512 0.366683 0.179037
47 1 0.842127 0.49317 0.143266
116 1 0.112549 0.508788 0.15739
278 1 0.208398 0.615785 0.106705
299 2 0.1238 0.711512 0.0929158
96 1 0.0444946 0.654998 0.197574
213 1 0.0264798 0.617539 0.0434264
234 1 0.314673 0.513708 0.184204
312 2 0.412444 0.588692 0.172366
20 1 0.344611 0.707071 0.19963
215 1 0.366449 0.593763 0.0612996
193 1 0.488978 0.670019 0.228829
291 2 0.490574 0.664637 0.0288912
242 1 0.522672 0.51542 0.11218
36 1 0.597086 0.663756 0.0971176
135 1 0.688577 0.5544 0.140693
39 1 0.683657 0.701112 0.224506
93 1 0.632306 0.506973 0.00107013
40 1 0.973506 0.526013 0.209782
346 2 0.780324 0.646878 0.184723
42 1 0.905977 0.639098 0.140938
33 1 0.75777 0.675415 0.0586597
150 1 0.0723837 0.997305 0.103461
338 2 0.087313 0.908122 0.0133545
153 1 0.195574 0.763519 0.196437
280 1 0.0444274 0.807435 0.183498
117 1 0.167961 0.90753 0.162193
226 1 0.181866 0.816933 0.0463078
190 1 0.00768901 0.778345 0.0235706
55 1 0.318646 0.755396 0.0499168
200 1 0.395022 0.993816 0.21924
151 1 0.442632 0.942925 0.0345472
305 2 0.449073 0.897085 0.160827
275 1 0.317757 0.887419 0.125225
207 1 0.472005 0.784559 0.112104
137 1 0.578274 0.902839 0.0575013
220 1 0.693613 0.800066 0.0881688
304 2 0.680648 0.897382 0.172896
57 1 0.591956 0.819436 0.20972
27 1 0.952894 0.907599 0.10159
187 1 0.855422 0.788655 0.0481047
221 1 0.826524 0.941745 0.151249
314 2 0.929366 0.797026 0.154112
145 1 0.919866 0.887616 0.249051
11 1 0.809973 0.78882 0.189349
106 1 0.0549959 0.121227 0.388045
91 1 0.181992 0.156066 0.331594
235 1 0.180061 0.234039 0.456689
109 1 0.118414 0.00965553 0.463053
309 2 0.210579 0.106412 0.468458
104 1 0.432028 0.243129 0.28214
333 2 0.44795 0.175868 0.423308
85 1 0.293212 0.0178127 0.398482
6 1 0.330011 0.1995 0.392135
288 1 0.442311 0.0870821 0.337647
283 1 0.379325 0.082888 0.49851
14 1 0.522681 0.0076084 0.456275
271 1 0.654542 0.0217306 0.342512
313 2 0.696059 0.133791 0.304957
142 1 0.582346 0.149597 0.402296
217 1 0.737616 0.173883 0.44318
348 2 0.651616 0.0198192 0.478436
317 2 0.804449 0.0423652 0.413401
63 1 0.816148 0.0975677 0.280986
224 1 0.939264 0.164727 0.306973
279 1 0.817455 0.233632 0.328017
264 1 0.895232 0.137365 0.447774
22 1 0.917079 0.00734543 0.365301
327 2 0.0947533 0.492909 0.470338
359 2 0.0473607 0.272651 0.319817
274 1 0.127578 0.390922 0.409753
255 1 0.171031 0.298231 0.299074
13 1 0.0116281 0.258872 0.438066
88 1 0.0539426 0.391477 0.25035
59 1 0.220183 0.462144 0.292304
289 2 0.291905 0.252181 0.257968
78 1 0.453576 0.491599 0.253998
89 1 0.301806 0.366948 0.45014
162 1 0.44095 0.477289 0.39876
243 1 0.354402 0.36052 0.304486
103 1 0.460966 0.310414 0.438308
209 1 0.725283 0.494981 0.273714
195 1 0.551152 0.396104 0.324636
247 1 0.662871 0.280269 0.33069
290 2 0.633811 0.379214 0.426233
244 1 0.599883 0.275024 0.489799
353 2 0.864744 0.444325 0.265418
24 1 0.993661 0.403072 0.474828
83 1 0.921704 0.340192 0.330171
148 1 0.863282 0.288792 0.463978
198 1 0.7754 0.382062 0.350667
356 2 0.854955 0.43406 0.462135
358 2 0.0338287 0.650667 0.489831
77 1 0.201109 0.618493 0.267293
56 1 0.079692 0.535599 0.314306
172 1 0.146225 0.612805 0.435692
277 1 0.0742366 0.703545 0.336307
152 1 0.240037 0.732647 0.38663
94 1 0.286049 0.507722 0.424553
154 1 0.375013 0.611725 0.32015
18 1 0.32818 0.643657 0.469217
343 2 0.493771 0.584615 0.357811
285 1 0.462988 0.715552 0.380503
208 1 0.578184 0.556603 0.255583
206 1 0.630282 0.511941 0.406734
75 1 0.501386 0.599839 0.477472
60 1 0.610133 0.695466 0.35304
335 2 0.980465 0.624961 0.317593
62 1 0.851251 0.583518 0.279741
72 1 0.765778 0.689181 0.37447
66 1 0.785186 0.534994 0.423581
102 1 0.933056 0.506681 0.372261
286 1 0.928744 0.730028 0.271052
166 1 0.940418 0.69638 0.427789
3 1 0.20037 0.995222 0.285806
182 1 0.0973802 0.764602 0.46602
80 1 0.0488043 0.969909 0.292019
233 1 0.239547 0.872846 0.435318
107 1 0.131551 0.849955 0.330325
258 1 0.366023 0.78988 0.473623
194 1 0.452394 0.825968 0.265945
350 2 0.336075 0.951156 0.488944
257 1 0.312217 0.871569 0.300204
159 1 0.426208 0.923928 0.396644
26 1 0.658819 0.760908 0.484172
251 1 0.699684 0.819113 0.33024
45 1 0.719422 0.920155 0.429533
276 1 0.530532 0.947327 0.28378
143 1 0.570169 0.857826 0.412642
272 1 0.991489 0.895641 0.418669
282 1 0.852855 0.815005 0.377175
270 1 0.783271 0.951487 0.30701
122 1 0.859993 0.921224 0.485327
357 2 0.783736 0.816323 0.493368
141 1 0.246223 0.225506 0.656102
5 1 0.114225 0.130161 0.556666
87 1 0.249869 0.0306231 0.555248
65 1 0.192545 0.0874488 0.701089
180 1 0.0929116 0.234022 0.678379
298 2 0.0753533 0.0164177 0.600186
229 1 0.420847 0.160822 0.666745
323 2 0.47865 0.0403426 0.572108
316 2 0.309065 0.120176 0.617181
68 1 0.366549 0.227255 0.542676
192 1 0.380338 0.0111416 0.638956
69 1 0.507636 0.157342 0.53532
248 1 0.659906 0.146711 0.561872
58 1 0.742474 0.0587927 0.677807
321 2 0.614991 0.107407 0.680659
254 1 0.512256 0.0184707 0.702303
16 1 0.609186 0.0167207 0.591988
211 1 0.556431 0.218025 0.721458
160 1 0.70495 0.211402 0.68455
61 1 0.975384 0.116068 0.6307
49 1 0.83956 0.160929 0.598963
341 2 0.944396 0.198765 0.717125
339 2 0.991857 0.166119 0.519181
177 1 0.865763 0.100226 0.737673
30 1 0.9711 0.0300447 0.506907
84 1 0.769341 0.0437951 0.529548
115 1 0.104646 0.325366 0.544029
232 1 0.0480965 0.452574 0.621452
332 2 0.249559 0.316169 0.550543
231 1 0.170043 0.368311 0.688372
29 1 0.214249 0.453932 0.573834
345 2 0.402035 0.278573 0.696799
169 1 0.348604 0.363615 0.609173
70 1 0.48988 0.295482 0.592775
318 2 0.415698 0.412858 0.514822
41 1 0.463445 0.450413 0.670795
134 1 0.302458 0.471585 0.706476
227 1 0.540376 0.43701 0.532322
43 1 0.624819 0.33921 0.644822
199 1 0.614909 0.494531 0.652979
158 1 0.7153 0.419453 0.512634
73 1 0.952912 0.262568 0.586079
7 1 0.852912 0.276881 0.703188
216 1 0.766483 0.296602 0.572451
252 1 0.884626 0.406296 0.591342
35 1 0.759613 0.410371 0.665645
120 1 0.98884 0.355877 0.717607
157 1 0.21853 0.713208 0.550022
351 2 0.165476 0.531245 0.682622
284 1 0.0540872 0.59877 0.733255
253 1 0.111401 0.597412 0.583031
205 1 0.0886718 0.744032 0.621115
297 2 0.235435 0.566923 0.520377
331 2 0.156272 0.651035 0.687817
222 1 0.26645 0.604834 0.648399
146 1 0.360935 0.514867 0.562826
191 1 0.383528 0.702621 0.607064
308 2 0.387856 0.570709 0.685756
185 1 0.507194 0.599954 0.621104
256 1 0.644177 0.646313 0.676471
173 1 0.664941 0.606735 0.527854
265 1 0.509651 0.746576 0.707214
184 1 0.5187 0.747014 0.548905
349 2 0.70214 0.716158 0.598649
149 1 0.785194 0.544057 0.592694
126 1 0.956224 0.554123 0.519674
90 1 0.762553 0.533532 0.74707
186 1 0.807322 0.690139 0.515377
28 1 0.815805 0.668614 0.681976
71 1 0.944879 0.686473 0.597812
156 1 0.925951 0.50189 0.70225
237 1 0.019207 0.981404 0.707331
9 1 0.179809 0.939377 0.676181
54 1 0.131375 0.881742 0.547619
189 1 0.0851347 0.833639 0.742488
1 1 0.222224 0.785806 0.692652
108 1 0.43072 0.866759 0.679587
354 2 0.303099 0.879255 0.720373
79 1 0.297326 0.871901 0.585452
241 1 0.461892 0.899994 0.541478
92 1 0.572531 0.885271 0.641379
204 1 0.728095 0.89576 0.597245
44 1 0.677025 0.786946 0.702881
225 1 0.654845 0.95604 0.742085
311 2 0.637139 0.892153 0.513125
293 2 0.985839 0.801197 0.669849
67 1 0.874906 0.986601 0.634771
181 1 0.983752 0.895165 0.582257
214 1 0.861022 0.816206 0.617504
295 2 0.780926 0.919777 0.717428
296 2 0.938888 0.803073 0.500347
119 1 0.0647558 0.0301372 0.950394
337 2 0.21124 0.200008 0.761942
37 1 0.18969 0.106927 0.857853
130 1 0.0619951 0.224428 0.922995
82 1 0.0361581 0.123729 0.782739
17 1 0.2713 0.236828 0.891319
202 1 0.328006 0.150221 0.784558
4 1 0.323966 0.0861574 0.928018
246 1 0.475596 0.125009 0.82377
123 1 0.419766 0.198672 0.949956
342 2 0.528456 0.157009 0.988679
355 2 0.622151 0.220499 0.833577
50 1 0.627991 0.0933243 0.801288
352 2 0.658476 0.111827 0.931728
307 2 0.562042 0.0017466 0.823145
259 1 0.543846 0.0364515 0.959773
347 2 0.936227 0.0272626 0.817004
228 1 0.7873 0.0205068 0.852071
197 1 0.766006 0.18217 0.825211
12 1 0.92963 0.121912 0.892831
46 1 0.930053 0.246247 0.830179
100 1 0.786921 0.126665 0.964718
267 1 0.902479 0.238325 0.992014
127 1 0.150063 0.292085 0.823853
260 1 0.135599 0.37463 0.958001
273 1 0.00758777 0.372063 0.875568
2 1 0.086664 0.467627 0.785594
219 1 0.226887 0.425598 0.836775
52 1 0.447574 0.276326 0.809152
95 1 0.412186 0.443465 0.815532
201 1 0.302194 0.325342 0.756142
147 1 0.370347 0.347269 0.930941
129 1 0.42649 0.489407 0.967186
300 2 0.301331 0.450749 0.942274
324 2 0.675293 0.451479 0.760146
105 1 0.684603 0.256498 0.947633
53 1 0.553225 0.373441 0.773981
132 1 0.726251 0.442332 0.888862
86 1 0.555231 0.297825 0.915762
269 1 0.687465 0.323799 0.796228
114 1 0.549457 0.455134 0.887876
360 2 0.639406 0.385027 0.960121
140 1 0.866456 0.391478 0.944288
301 2 0.813866 0.295277 0.888247
230 1 0.840492 0.394856 0.792632
25 1 0.114443 0.527945 0.938291
99 1 0.157696 0.682897 0.971898
124 1 0.21785 0.585773 0.797481
203 1 0.153457 0.71631 0.821055
98 1 0.0215174 0.678073 0.905945
136 1 0.287003 0.725183 0.901487
249 1 0.367026 0.692551 0.771865
250 1 0.265228 0.571228 0.94242
121 1 0.481464 0.597504 0.774394
302 2 0.331088 0.552249 0.834182
144 1 0.40941 0.638724 0.905573
292 2 0.484856 0.741918 0.829156
19 1 0.622476 0.549206 0.797077
34 1 0.60658 0.703113 0.822371
128 1 0.71878 0.62131 0.916794
64 1 0.555159 0.606233 0.929014
330 2 0.722728 0.680132 0.798707
8 1 0.967964 0.715744 0.756325
325 2 0.838767 0.512476 0.862103
306 2 0.95629 0.612343 0.827371
101 1 0.892177 0.646531 0.979835
81 1 0.962427 0.522554 0.915824
118 1 0.839625 0.644723 0.826423
164 1 0.821706 0.518946 0.995686
21 1 0.203061 0.973558 0.994282
138 1 0.222756 0.856525 0.831992
23 1 0.123336 0.969056 0.822314
178 1 0.0869771 0.826464 0.906517
294 2 0.231365 0.97722 0.867539
48 1 0.312916 0.988075 0.776641
239 1 0.31761 0.899152 0.956019
303 2 0.434364 0.948497 0.770657
261 1 0.37665 0.844096 0.815143
38 1 0.430913 0.971394 0.89098
287 1 0.441327 0.797311 0.950546
179 1 0.740541 0.776956 0.937831
163 1 0.585116 0.753633 0.966065
268 1 0.649879 0.946913 0.889611
336 2 0.52572 0.884708 0.937011
344 2 0.671358 0.804739 0.828725
167 1 0.526948 0.873514 0.818338
322 2 0.695272 0.893445 0.996364
212 1 0.944785 0.9264 0.913998
171 1 0.913398 0.89721 0.75894
183 1 0.815055 0.929974 0.97783
329 2 0.846401 0.777128 0.752251
32 1 0.772256 0.87364 0.827038
74 1 0.901751 0.782697 0.888256
ITEM: TIMESTEP
60000
ITEM: NUMBER OF ATOMS
360
ITEM: BOX BOUNDS pp pp pp
0.0000000000000000e+00 6.6943295008216896e+00
0.0000000000000000e+00 6.6943295008216896e+00
0.0000000000000000e+00 6.6943295008216896e+00
ITEM: ATOMS id type xs ys zs
80 1 0.175432 0.0656159 0.132035
150 1 0.12877 0.234015 0.160521
125 1 0.0293681 0.106873 0.215415
100 1 0.037451 0.145509 0.0689432
326 2 0.210977 0.00915257 0.254783
38 1 0.470891 0.871685 0.0440584
113 1 0.27594 0.192634 0.123074
123 1 0.408146 0.107901 0.101375
104 1 0.468378 0.0094102 0.249549
322 2 0.477347 0.985875 0.0968995
161 1 0.411131 0.252832 0.132657
259 1 0.56137 0.0801827 0.0418424
221 1 0.792902 0.00417609 0.0765178
31 1 0.593672 0.0706236 0.190975
236 1 0.579942 0.239304 0.117963
195 1 0.764837 0.0798979 0.233705
50 1 0.704761 0.13188 0.0997246
217 1 0.864642 0.146978 0.135138
290 2 0.90958 0.246042 0.0508191
359 2 0.0395437 0.0353378 0.109394
25 1 0.972751 0.258458 0.184064
317 2 0.00945856 0.011226 0.317133
310 2 0.0511879 0.357413 0.149428
281 1 0.153078 0.378078 0.0693012
116 1 0.0494278 0.483699 0.132049
255 1 0.19147 0.466354 0.203406
196 1 0.287919 0.347211 0.183949
356 2 0.374586 0.386122 0.0992821
15 1 0.0420829 0.291789 0.00844242
223 1 0.292524 0.474521 0.0471042
262 1 0.423511 0.314287 0.272738
78 1 0.365893 0.489247 0.178924
209 1 0.494113 0.387674 0.1487
218 1 0.624316 0.487291 0.0781387
131 1 0.682796 0.365341 0.163383
245 1 0.633027 0.340113 0.020572
240 1 0.737447 0.242343 0.224883
277 1 0.104717 0.881386 0.471155
260 1 0.937073 0.38361 0.0976393
279 1 0.792848 0.291853 0.0639356
33 1 0.776942 0.486534 0.0811211
62 1 0.884437 0.494039 0.201117
40 1 0.110602 0.632239 0.0661319
292 2 0.167527 0.525133 0.102342
172 1 0.104237 0.591207 0.235725
151 1 0.238985 0.61567 0.152692
327 2 0.376167 0.612238 0.185968
239 1 0.374156 0.753911 0.086222
163 1 0.493612 0.718389 0.174006
144 1 0.395128 0.599207 0.0611112
215 1 0.316196 0.730067 0.225462
234 1 0.500405 0.557402 0.184773
190 1 0.713026 0.574316 0.232384
60 1 0.627671 0.644741 0.125483
11 1 0.710535 0.734655 0.217489
360 2 0.495699 0.180535 0.0216566
300 2 0.518156 0.576571 0.0527716
54 1 0.971128 0.911012 0.381736
135 1 0.908659 0.517889 0.0396287
42 1 0.81104 0.628917 0.12943
166 1 0.969815 0.625894 0.156931
291 2 0.844396 0.703652 0.0345781
4 1 0.146767 0.733066 0.206012
280 1 0.175254 0.920783 0.0750973
179 1 0.0141277 0.761362 0.116059
96 1 0.204731 0.752837 0.0759768
299 2 0.086399 0.858315 0.171575
238 1 0.0189666 0.912658 0.072314
155 1 0.31693 0.984576 0.139398
354 2 0.289707 0.832129 0.125218
77 1 0.224479 0.854761 0.220479
76 1 0.416848 0.856645 0.189642
319 2 0.520726 0.901146 0.310128
71 1 0.993245 0.751749 0.438774
111 1 0.555643 0.915637 0.189322
57 1 0.656613 0.958037 0.069939
314 2 0.596264 0.796748 0.235285
315 2 0.681091 0.978373 0.187659
220 1 0.61299 0.806638 0.10643
187 1 0.762079 0.839427 0.0687655
263 1 0.970613 0.875702 0.231259
145 1 0.914905 0.00726203 0.168041
74 1 0.859616 0.774955 0.167362
27 1 0.912136 0.822204 0.00563413
345 2 0.141744 0.132122 0.400448
170 1 0.0439783 0.247992 0.338805
133 1 0.164737 0.1405 0.283289
109 1 0.262362 0.0748307 0.416579
88 1 0.213332 0.239125 0.39655
3 1 0.126883 0.995247 0.362243
63 1 0.0275396 0.240246 0.491778
91 1 0.326714 0.101802 0.244471
69 1 0.373464 0.192423 0.377685
320 2 0.386937 0.0682976 0.362184
112 1 0.493222 0.17869 0.237987
207 1 0.327953 0.972465 0.306671
107 1 0.986707 0.733812 0.275601
117 1 0.271555 0.0723118 0.0139035
124 1 0.894277 0.517812 0.480896
288 1 0.509507 0.107992 0.410113
148 1 0.605159 1.00418 0.337868
146 1 0.637697 0.15366 0.333224
84 1 0.768175 0.0863619 0.419495
251 1 0.851917 0.800756 0.320749
106 1 0.0095749 0.0999921 0.408894
83 1 0.883843 0.190819 0.292562
61 1 0.89563 0.00919533 0.475653
176 1 0.879479 0.0310106 0.316162
294 2 0.0274795 0.995216 0.472724
264 1 0.892958 0.168201 0.463559
30 1 0.0322316 0.376468 0.439708
59 1 0.170919 0.332413 0.282666
56 1 0.0926513 0.479986 0.33496
51 1 0.00931915 0.382235 0.264644
224 1 0.185312 0.402512 0.413855
188 1 0.924817 0.0370804 0.0101998
335 2 0.304559 0.268284 0.299991
289 2 0.406823 0.334752 0.402126
283 1 0.314449 0.403988 0.318596
227 1 0.449382 0.458031 0.301518
339 2 0.685623 0.00266379 0.454285
271 1 0.797102 0.917329 0.212273
308 2 0.638085 0.287582 0.359709
39 1 0.600875 0.469401 0.257018
68 1 0.526623 0.260752 0.404399
243 1 0.583661 0.307413 0.250606
158 1 0.583864 0.403346 0.389479
208 1 0.727169 0.37997 0.321559
343 2 0.677466 0.498863 0.352986
353 2 0.763079 0.455974 0.218994
102 1 0.847488 0.344209 0.222491
22 1 0.903902 0.331263 0.377
247 1 0.767581 0.249349 0.395015
252 1 0.81268 0.376582 0.485635
309 2 0.964231 0.463503 0.362357
232 1 0.075376 0.542807 0.471921
90 1 0.740262 0.51082 0.467567
336 2 0.204943 0.647271 0.299868
182 1 0.22675 0.574462 0.414912
72 1 0.0949018 0.669756 0.35993
210 1 0.666819 0.876274 0.287657
20 1 0.299885 0.700791 0.374146
75 1 0.456203 0.658827 0.306009
29 1 0.404987 0.574503 0.422207
18 1 0.310197 0.581974 0.292051
258 1 0.449931 0.724761 0.459162
250 1 0.457634 0.469112 0.0209762
266 1 0.599991 0.659757 0.298615
200 1 0.75265 0.769795 0.458336
193 1 0.559059 0.557138 0.404272
162 1 0.605767 0.715391 0.459331
206 1 0.727414 0.648462 0.376019
344 2 0.673898 0.764993 0.347911
186 1 0.855977 0.661634 0.454746
349 2 0.988423 0.626095 0.422581
198 1 0.955979 0.576101 0.30973
149 1 0.838753 0.658416 0.27477
126 1 0.808035 0.517719 0.329709
257 1 0.091599 0.968702 0.209733
94 1 0.184854 0.754499 0.461258
181 1 0.228414 0.886775 0.389997
286 1 0.097794 0.83826 0.328921
312 2 0.215912 0.774158 0.315443
70 1 0.306943 0.358206 0.486771
351 2 0.693646 0.374458 0.439461
110 1 0.38108 0.828723 0.344465
350 2 0.487551 0.8499 0.448466
36 1 0.52633 0.783327 0.341905
328 2 0.314968 0.974006 0.439857
139 1 0.438977 0.963075 0.396082
142 1 0.781135 0.924587 0.410918
333 2 0.554512 0.979519 0.498921
340 2 0.653173 0.599785 0.477892
342 2 0.740706 0.988956 0.318143
103 1 0.605332 0.882565 0.437556
248 1 0.650648 0.262044 0.490948
89 1 0.456861 0.441817 0.45995
165 1 0.289739 0.307057 0.0319882
302 2 0.335111 0.475708 0.453768
154 1 0.346099 0.825807 0.492244
242 1 0.482583 0.305231 0.00496909
93 1 0.523529 0.704835 0.0102484
46 1 0.697874 0.71278 0.00299489
6 1 0.152137 0.0424213 0.50456
346 2 0.0258862 0.560706 0.0132637
5 1 0.133937 0.182974 0.560959
87 1 0.0792376 0.155274 0.712448
212 1 0.218211 0.0735021 0.650842
79 1 0.216824 0.214243 0.697072
316 2 0.266898 0.102707 0.544256
334 2 0.0923724 0.0350216 0.617308
270 1 0.804912 0.13936 0.98559
203 1 0.341456 0.15848 0.648405
244 1 0.261889 0.230466 0.538381
204 1 0.496894 0.235097 0.685498
58 1 0.471694 0.0746486 0.748801
282 1 0.884987 0.83742 0.520739
48 1 0.516384 0.0823086 0.593763
14 1 0.69136 0.0878999 0.662141
49 1 0.655745 0.235643 0.666263
254 1 0.600226 0.00998953 0.741415
122 1 0.99932 0.100442 0.567993
67 1 0.848105 0.116524 0.647474
9 1 0.975863 0.0236943 0.703143
13 1 0.933484 0.242664 0.621973
177 1 0.792821 0.241855 0.727453
171 1 0.822879 0.979567 0.714559
2 1 0.0680333 0.297644 0.682596
235 1 0.138997 0.343799 0.557144
230 1 0.140275 0.441208 0.68941
331 2 0.994898 0.40859 0.696122
274 1 0.956322 0.389544 0.563368
273 1 0.264114 0.372425 0.658006
134 1 0.416302 0.24812 0.517695
41 1 0.412328 0.380033 0.616818
249 1 0.263602 0.521327 0.707967
201 1 0.383259 0.302895 0.756911
98 1 0.95494 0.668488 1.00386
43 1 0.546595 0.334773 0.575178
120 1 0.696535 0.366628 0.590834
141 1 0.583046 0.378107 0.73585
7 1 0.696757 0.476111 0.709109
173 1 0.591809 0.48569 0.522767
216 1 0.781712 0.231952 0.562217
24 1 0.834102 0.358092 0.645749
115 1 0.913247 0.514311 0.747443
275 1 0.251429 0.62984 0.993079
156 1 0.156943 0.61762 0.593127
169 1 0.229 0.481478 0.555265
284 1 0.0266735 0.517048 0.61985
157 1 0.138713 0.650187 0.738565
329 2 0.0599308 0.528331 0.738877
305 2 0.231843 0.744827 0.756699
185 1 0.368268 0.529963 0.581457
222 1 0.300418 0.664227 0.680847
285 1 0.43997 0.664085 0.621179
253 1 0.308836 0.670032 0.52108
53 1 0.515234 0.497513 0.651754
199 1 0.583251 0.620228 0.585051
276 1 0.738484 0.657525 0.558603
325 2 0.687023 0.53325 0.604055
304 2 0.537088 0.618996 0.708531
241 1 0.664344 0.622736 0.716308
108 1 0.641743 0.101754 0.51208
99 1 0.987288 0.650817 0.730094
311 2 0.921357 0.586911 0.633931
66 1 0.812177 0.519779 0.615825
118 1 0.831179 0.64881 0.691332
214 1 0.95896 0.679429 0.564466
272 1 0.0804289 0.765829 0.657353
152 1 0.236269 0.784107 0.618157
233 1 0.150898 0.908676 0.635976
293 2 0.220774 0.870135 0.52336
278 1 0.241738 0.878278 0.773553
323 2 0.412969 0.0253191 0.650271
143 1 0.279244 0.971022 0.572467
85 1 0.370583 0.837171 0.648517
64 1 0.494924 0.747581 0.726816
261 1 0.324075 0.998674 0.734034
159 1 0.432813 0.936843 0.553185
194 1 0.514517 0.811268 0.584015
167 1 0.479473 0.92085 0.717981
92 1 0.626365 0.926147 0.597198
32 1 0.645257 0.747665 0.630752
352 2 0.712213 0.941707 0.687382
313 2 0.674371 0.830775 0.525734
34 1 0.624997 0.847586 0.737541
297 2 0.0180317 0.806726 0.553986
44 1 0.931519 0.819593 0.666749
296 2 0.840569 0.728009 0.586132
237 1 0.00340273 0.937441 0.584063
26 1 0.761322 0.977823 0.557178
357 2 0.874158 0.920809 0.611508
16 1 0.774338 0.826078 0.647447
65 1 0.366492 0.182764 0.978443
37 1 0.185515 0.130435 0.833089
12 1 0.0306565 0.0648428 0.858939
82 1 0.079978 0.229914 0.849042
347 2 0.0762123 0.141286 0.948078
321 2 0.550894 0.211239 0.550013
189 1 0.735063 0.753615 0.778151
52 1 0.357362 0.156551 0.816494
86 1 0.508726 0.287449 0.853338
303 2 0.403363 0.0361972 0.849314
128 1 0.649619 0.847882 0.942783
246 1 0.488991 0.122815 0.910287
268 1 0.649576 0.177902 0.963482
355 2 0.610813 0.0752432 0.88591
105 1 0.601768 0.160158 0.796901
211 1 0.753199 0.0796358 0.806368
265 1 0.512796 0.811874 0.894805
47 1 0.709951 0.0269331 0.938411
23 1 0.929674 0.160985 0.770109
197 1 0.951483 0.186597 0.929597
228 1 0.875361 0.0342127 0.865611
97 1 0.899031 0.334418 0.94932
219 1 0.252711 0.414979 0.815756
229 1 0.380911 0.0797318 0.504128
298 2 0.17252 0.317583 0.762816
17 1 0.146638 0.353527 0.899405
174 1 0.0469322 0.419245 0.81149
168 1 0.0190219 0.430408 0.957646
127 1 0.35405 0.516192 0.905599
180 1 0.255723 0.264558 0.86037
332 2 0.250269 0.413689 0.949488
175 1 0.382305 0.371344 0.908418
121 1 0.42512 0.439954 0.77418
153 1 0.803513 0.916935 0.950084
341 2 0.700774 0.342144 0.716129
225 1 0.72823 0.914006 0.822922
140 1 0.654591 0.293747 0.854421
324 2 0.652994 0.451411 0.838001
19 1 0.756456 0.41387 0.943707
178 1 0.965601 0.747355 0.858605
114 1 0.56097 0.42745 0.921905
160 1 0.810297 0.232504 0.869111
73 1 0.796174 0.39441 0.785101
267 1 0.930871 0.323221 0.788459
337 2 0.0122216 0.322378 0.884167
164 1 0.872983 0.490621 0.898022
318 2 0.490673 0.552407 0.530995
130 1 0.148506 0.529332 0.824976
55 1 0.125322 0.665295 0.918305
213 1 0.00761409 0.574501 0.875402
147 1 0.155514 0.506424 0.970712
183 1 0.880442 0.876037 0.812574
191 1 0.410111 0.601202 0.764976
231 1 0.267706 0.634846 0.845879
269 1 0.490238 0.590128 0.920828
256 1 0.385435 0.706145 0.937902
136 1 0.362042 0.766673 0.799774
95 1 0.645061 0.574134 0.941868
330 2 0.468716 0.693803 0.841914
129 1 0.595744 0.677817 0.839776
132 1 0.558794 0.53265 0.796557
35 1 0.750983 0.554349 0.830216
295 2 0.712447 0.66819 0.876054
338 2 0.873953 0.737965 0.768399
119 1 0.103782 0.0265249 0.990316
81 1 0.799759 0.593726 0.976318
28 1 0.866811 0.643552 0.851865
101 1 0.805034 0.770955 0.922531
45 1 0.0198751 0.892998 0.761781
138 1 0.0715309 0.806318 0.975348
205 1 0.131347 0.00608073 0.752988
8 1 0.120762 0.778538 0.816971
226 1 0.14146 0.923392 0.884994
10 1 0.994146 0.919699 0.912996
21 1 0.275311 0.998378 0.89082
301 2 0.727137 0.291213 0.947837
1 1 0.23637 0.78522 0.935553
184 1 0.396216 0.90012 0.855839
137 1 0.424722 0.00940568 0.975615
192 1 0.540824 0.962482 0.872691
306 2 0.894345 0.283389 0.512212
348 2 0.769378 0.0999276 0.545266
287 1 0.327646 0.88933 0.999435
307 2 0.548761 0.954943 0.995865
202 1 0.184913 0.203704 0.985273
358 2 0.0844042 0.668501 0.511445
ITEM: TIMESTEP
120000
ITEM: NUMBER OF ATOMS
360
ITEM: BOX BOUNDS pp pp pp
0.0000000000000000e+00 6.6943295008216896e+00
0.0000000000000000e+00 6.6943295008216896e+00
0.0000000000000000e+00 6.6943295008216896e+00
ITEM: ATOMS id type xs ys zs
104 1 0.133799 0.19068 0.120967
117 1 0.178478 0.0310108 0.0732761
100 1 0.0163418 0.995457 0.0730259
3 1 0.11369 0.0518468 0.212478
281 1 0.00381754 0.146442 0.035817
22 1 0.994992 0.147576 0.193815
334 2 0.953906 0.89898 0.494253
259 1 0.275742 0.117395 0.235077
184 1 0.450131 0.131818 0.0203553
268 1 0.411599 0.177113 0.175458
52 1 0.35508 0.0282005 0.114768
161 1 0.275307 0.152285 0.0622
225 1 0.565811 0.125656 0.131882
317 2 0.608849 0.223171 0.204533
240 1 0.715273 0.226552 0.128929
57 1 0.696009 0.0192243 0.0912315
327 2 0.236293 0.658467 0.029819
308 2 0.919302 0.0573665 0.135705
125 1 0.815262 0.0676134 0.20225
30 1 0.855809 0.155531 0.0900753
50 1 0.806798 0.309296 0.0168045
149 1 0.690733 0.771129 0.484438
116 1 0.136587 0.34781 0.095229
51 1 0.0442354 0.454858 0.20242
83 1 0.0220887 0.295942 0.188451
78 1 0.203449 0.445155 0.207308
237 1 0.886125 0.994037 0.469631
306 2 0.162789 0.315889 0.235058
255 1 0.256907 0.264848 0.171355
112 1 0.375865 0.269882 0.06146
360 2 0.398762 0.308452 0.173863
121 1 0.287388 0.395635 0.0866321
283 1 0.44108 0.416502 0.1076
209 1 0.511596 0.30582 0.239392
69 1 0.348523 0.413063 0.251873
270 1 0.54661 0.267259 0.0805716
234 1 0.603445 0.392466 0.131701
353 2 0.707553 0.430747 0.207841
301 2 0.707876 0.353798 0.0710135
243 1 0.670081 0.330889 0.267018
190 1 0.524044 0.458049 0.250983
170 1 0.855962 0.209465 0.241392
337 2 0.909483 0.280585 0.119197
279 1 0.806827 0.343164 0.174171
46 1 0.928446 0.40926 0.114673
260 1 0.924741 0.376432 0.270531
166 1 0.180152 0.555859 0.0909211
344 2 0.0614174 0.564913 0.152659
179 1 0.0679947 0.672827 0.0750185
155 1 0.18607 0.75881 0.107122
62 1 0.134123 0.584974 0.253513
239 1 0.270582 0.619879 0.231438
4 1 0.339604 0.618673 0.0947381
250 1 0.412266 0.548358 0.201736
356 2 0.311883 0.71901 0.16294
31 1 0.500664 0.993662 0.40133
1 1 0.470655 0.701761 0.15137
75 1 0.352782 0.754198 0.0513008
132 1 0.518512 0.56711 0.0819045
266 1 0.638675 0.690981 0.189516
81 1 0.653762 0.533738 0.136685
11 1 0.628139 0.703603 0.0393712
60 1 0.768212 0.62713 0.0849831
135 1 0.771053 0.468169 0.0524789
287 1 0.111099 0.89038 0.0216331
102 1 0.818691 0.510299 0.185367
275 1 0.904073 0.566704 0.0435518
198 1 0.957998 0.614728 0.201613
107 1 0.0129565 0.75259 0.209366
220 1 0.888502 0.718527 0.115628
54 1 0.162802 0.752054 0.266843
335 2 0.0693023 0.799434 0.0918542
80 1 0.262279 0.901411 0.081449
133 1 0.126741 0.880434 0.184663
103 1 0.664053 0.931641 0.470212
96 1 0.421348 0.882542 0.162795
246 1 0.247526 0.970836 0.221897
76 1 0.287332 0.825265 0.228537
265 1 0.502328 0.817152 0.021368
187 1 0.880231 0.765099 0.29333
236 1 0.548523 0.972232 0.238767
21 1 0.527895 0.973729 0.0702001
145 1 0.734832 0.800588 0.143658
163 1 0.583768 0.84172 0.152246
195 1 0.705515 0.933733 0.22046
323 2 0.781491 0.893031 0.0816992
34 1 0.676846 0.873027 0.0234699
257 1 0.949552 0.857739 0.0832426
339 2 0.987705 0.872796 0.204795
171 1 0.836113 1.00074 0.047806
263 1 0.849237 0.883274 0.203927
25 1 0.953942 0.984715 0.235807
292 2 0.0922073 0.250066 0.00658686
298 2 0.0483766 0.109311 0.310121
172 1 0.127778 0.200627 0.280126
320 2 0.143279 0.140651 0.458076
88 1 0.184484 0.0322902 0.359443
111 1 0.752522 0.877836 0.35465
131 1 0.252776 0.196835 0.368888
123 1 0.400117 0.0183152 0.253289
354 2 0.295998 0.0725187 0.354827
312 2 0.744405 0.73615 0.0176047
297 2 0.828116 0.968587 0.292627
91 1 0.397535 0.131233 0.371977
176 1 0.667395 0.0766412 0.239845
146 1 0.520982 0.139456 0.281819
247 1 0.622215 0.0999393 0.440085
43 1 0.511032 0.209171 0.435299
303 2 0.74373 0.184937 0.0103082
142 1 0.964815 0.776662 0.443781
84 1 0.748928 0.0304146 0.370413
348 2 0.779283 0.134748 0.325915
63 1 0.979699 0.236589 0.332079
106 1 0.898231 0.0851478 0.336335
61 1 0.767006 0.17973 0.448267
274 1 0.114471 0.424532 0.475395
185 1 0.238103 0.355941 0.363864
169 1 0.0998471 0.254261 0.434348
235 1 0.0800741 0.352785 0.321877
288 1 0.275781 0.0897321 0.487283
232 1 0.36322 0.267407 0.290797
227 1 0.343297 0.441376 0.455186
68 1 0.460466 0.375655 0.373608
262 1 0.372246 0.2645 0.452236
122 1 0.0108219 0.121283 0.453169
217 1 0.649306 0.197769 0.33255
290 2 0.572203 0.288882 0.360385
248 1 0.611071 0.409628 0.388828
340 2 0.520267 0.513269 0.359839
271 1 0.909514 0.90348 0.35273
208 1 0.787833 0.438431 0.308478
264 1 0.802874 0.300255 0.359006
325 2 0.936976 0.500094 0.246493
224 1 0.931924 0.378249 0.428211
216 1 0.752424 0.405333 0.455944
357 2 0.880881 0.227178 0.456464
310 2 0.147078 0.466678 0.321398
124 1 0.0231159 0.511041 0.360305
214 1 0.141582 0.588788 0.401297
66 1 0.0213531 0.666092 0.337128
72 1 0.257416 0.677466 0.366872
315 2 0.638794 0.986794 0.334607
299 2 0.30895 0.502417 0.145063
90 1 0.983502 0.61144 0.473393
277 1 0.343529 0.639967 0.492446
56 1 0.271904 0.516011 0.33824
258 1 0.501074 0.696931 0.421513
182 1 0.408401 0.56104 0.373715
18 1 0.3894 0.712336 0.28039
33 1 0.667302 0.535921 0.285619
39 1 0.607314 0.571649 0.428879
181 1 0.529331 0.614777 0.290123
148 1 0.638218 0.696672 0.352855
350 2 0.535863 0.751538 0.289203
42 1 0.774421 0.656099 0.240135
210 1 0.768426 0.645863 0.407664
313 2 0.729334 0.519547 0.408116
322 2 0.901733 0.67797 0.401762
186 1 0.868077 0.58788 0.313538
24 1 0.860781 0.514339 0.459612
286 1 0.0365653 0.995766 0.376639
349 2 0.109773 0.749775 0.393222
71 1 0.0916144 0.87899 0.469456
326 2 0.14143 0.935963 0.293573
251 1 0.0462448 0.849419 0.311647
20 1 0.204719 0.853021 0.363148
207 1 0.538775 0.83843 0.451716
319 2 0.813695 0.790978 0.417568
215 1 0.458954 0.859165 0.309495
77 1 0.320314 0.939637 0.369712
156 1 0.387347 0.790992 0.449048
206 1 0.613851 0.844229 0.313108
108 1 0.641261 0.272575 0.473452
314 2 0.706323 0.769889 0.263841