ITEM: TIMESTEP
100000
ITEM: NUMBER OF ATOMS
400
ITEM: BOX BOUNDS pp pp pp
0.0000000000000000e+00 1.9069251784911849e+01
0.0000000000000000e+00 1.9069251784911849e+01
-4.7673129462279618e-01 4.7673129462279618e-01
ITEM: ATOMS id type xs ys zs
29 1 0.266704 0.00609185 0.5
364 1 0.327327 0.00678173 0.5
70 1 0.377093 0.0186661 0.5
46 1 0.431927 0.0184541 0.5
388 1 0.48568 0.02831 0.5
30 1 0.537503 0.034918 0.5
12 1 0.553512 0.0859968 0.5
15 1 0.693777 0.0386417 0.5
55 1 0.768058 0.00581231 0.5
18 1 0.821213 1.00055 0.5
19 1 0.877107 0.0125825 0.5
381 1 0.927844 0.0163402 0.5
39 1 0.982004 0.0244086 0.5
2 1 0.0345262 0.0365944 0.5
380 1 0.0848444 0.0362899 0.5
362 1 0.135346 0.0413304 0.5
24 1 0.186336 0.044597 0.5
26 1 0.246493 0.052768 0.5
389 1 0.300297 0.0496577 0.5
66 1 0.349369 0.0600506 0.5
45 1 0.399232 0.0642045 0.5
50 1 0.450662 0.0660561 0.5
367 1 0.504385 0.0733553 0.5
373 1 0.643545 0.044915 0.5
32 1 0.741408 0.0503614 0.5
58 1 0.795778 0.0523624 0.5
61 1 0.0492735 0.0876663 0.5
42 1 0.104721 0.0848026 0.5
3 1 0.160674 0.0872739 0.5
6 1 0.213563 0.0909891 0.5
25 1 0.265302 0.097508 0.5
48 1 0.31726 0.102 0.5
69 1 0.604856 0.0890314 0.5
33 1 0.662214 0.0901156 0.5
11 1 0.712996 0.0942041 0.5
38 1 0.846674 0.0584231 0.5
400 1 0.899054 0.0582899 0.5
59 1 0.948638 0.0669518 0.5
382 1 1.00061 0.0724915 0.5
101 1 0.0222377 0.131167 0.5
63 1 0.0773512 0.130862 0.5
83 1 0.125986 0.129514 0.5
43 1 0.229837 0.140398 0.5
68 1 0.370261 0.108878 0.5
67 1 0.423891 0.109416 0.5
71 1 0.474154 0.128474 0.5
49 1 0.52904 0.131068 0.5
53 1 0.579144 0.132601 0.5
34 1 0.63554 0.135007 0.5
54 1 0.686646 0.139175 0.5
37 1 0.770244 0.0978917 0.5
77 1 0.821089 0.101566 0.5
20 1 0.871188 0.105558 0.5
81 1 0.92054 0.108854 0.5
40 1 0.973751 0.117219 0.5
44 1 0.178705 0.135597 0.5
47 1 0.282096 0.147891 0.5
88 1 0.332597 0.153065 0.5
90 1 0.392733 0.161741 0.5
31 1 0.441541 0.168632 0.5
92 1 0.498898 0.172995 0.5
52 1 0.547439 0.180477 0.5
72 1 0.596574 0.18213 0.5
73 1 0.649438 0.181317 0.5
74 1 0.73902 0.139702 0.5
75 1 0.790183 0.145271 0.5
98 1 0.840134 0.14747 0.5
78 1 0.892686 0.163644 0.5
41 1 0.942874 0.158475 0.5
120 1 0.993011 0.172999 0.5
62 1 0.0483131 0.176214 0.5
103 1 0.101831 0.174341 0.5
105 1 0.153484 0.185547 0.5
85 1 0.2039 0.190262 0.5
23 1 0.253052 0.196541 0.5
126 1 0.304918 0.19741 0.5
28 1 0.354955 0.209963 0.5
112 1 0.411139 0.211635 0.5
91 1 0.462906 0.214713 0.5
93 1 0.51775 0.22036 0.5
113 1 0.622656 0.227979 0.5
82 1 0.0167119 0.224541 0.5
104 1 0.0670896 0.225065 0.5
84 1 0.118272 0.225113 0.5
65 1 0.171345 0.233412 0.5
64 1 0.221924 0.23838 0.5
89 1 0.274439 0.245133 0.5
87 1 0.324565 0.250514 0.5
110 1 0.57005 0.227258 0.5
94 1 0.703537 0.185456 0.5
97 1 0.758718 0.187064 0.5
117 1 0.811787 0.190819 0.5
99 1 0.86179 0.202944 0.5
79 1 0.915782 0.208167 0.5
121 1 0.96408 0.217442 0.5
122 1 0.0370254 0.273356 0.5
201 1 0.0907437 0.270713 0.5
164 1 0.143773 0.277787 0.5
86 1 0.194755 0.283195 0.5
130 1 0.378207 0.256117 0.5
151 1 0.4323 0.260692 0.5
111 1 0.482059 0.262301 0.5
134 1 0.535595 0.270112 0.5
133 1 0.585359 0.278844 0.5
114 1 0.672914 0.231281 0.5
96 1 0.724217 0.240083 0.5
116 1 0.78009 0.233204 0.5
138 1 0.828403 0.247884 0.5
60 1 0.885017 0.249532 0.5
119 1 0.932961 0.261428 0.5
100 1 0.98235 0.264974 0.5
140 1 0.000897136 0.312587 0.5
163 1 0.244858 0.284269 0.5
131 1 0.298721 0.293865 0.5
106 1 0.349838 0.302102 0.5
127 1 0.400458 0.300524 0.5
148 1 0.451241 0.30703 0.5
132 1 0.502846 0.31551 0.5
150 1 0.555914 0.320006 0.5
115 1 0.6393 0.278314 0.5
95 1 0.693115 0.282146 0.5
136 1 0.745066 0.284355 0.5
137 1 0.798036 0.287975 0.5
157 1 0.850475 0.296903 0.5
102 1 0.0575586 0.319445 0.5
143 1 0.110986 0.31972 0.5
124 1 0.159046 0.333523 0.5
108 1 0.212811 0.333373 0.5
107 1 0.266276 0.334004 0.5
129 1 0.318531 0.348886 0.5
128 1 0.372888 0.34755 0.5
154 1 0.60616 0.324905 0.5
135 1 0.655143 0.334112 0.5
118 1 0.901276 0.300334 0.5
142 1 0.951583 0.31016 0.5
125 1 0.0291308 0.359837 0.5
183 1 0.0838678 0.367233 0.5
146 1 0.133939 0.381138 0.5
109 1 0.183543 0.381003 0.5
147 1 0.240394 0.378927 0.5
149 1 0.290391 0.393635 0.5
191 1 0.424538 0.351654 0.5
153 1 0.474361 0.359477 0.5
189 1 0.529602 0.364542 0.5
158 1 0.710394 0.33012 0.5
156 1 0.769124 0.330665 0.5
159 1 0.819172 0.342638 0.5
160 1 0.868578 0.343564 0.5
141 1 0.916897 0.35092 0.5
123 1 0.978356 0.361762 0.5
181 1 0.00158486 0.405043 0.5
190 1 0.342596 0.39275 0.5
170 1 0.39441 0.391811 0.5
171 1 0.44268 0.399585 0.5
211 1 0.497314 0.40632 0.5
152 1 0.583554 0.370884 0.5
155 1 0.63326 0.377935 0.5
195 1 0.688231 0.381684 0.5
176 1 0.741313 0.375176 0.5
139 1 0.789579 0.385857 0.5
179 1 0.84216 0.389828 0.5
200 1 0.900746 0.398628 0.5
199 1 0.95136 0.408068 0.5
182 1 0.0531081 0.40738 0.5
166 1 0.102376 0.421818 0.5
186 1 0.154893 0.425794 0.5
165 1 0.204676 0.428486 0.5
208 1 0.254932 0.435298 0.5
168 1 0.307336 0.442251 0.5
169 1 0.360787 0.440326 0.5
232 1 0.41129 0.438735 0.5
173 1 0.552622 0.413604 0.5
174 1 0.6013 0.419434 0.5
175 1 0.657961 0.422676 0.5
196 1 0.71622 0.426432 0.5
217 1 0.76679 0.432658 0.5
238 1 0.820381 0.436142 0.5
220 1 0.0228734 0.457173 0.5
162 1 0.0731385 0.462828 0.5
184 1 0.122893 0.469747 0.5
145 1 0.173915 0.47606 0.5
187 1 0.224034 0.479012 0.5
210 1 0.276687 0.481732 0.5
172 1 0.465898 0.450166 0.5
193 1 0.520574 0.460696 0.5
192 1 0.576196 0.464067 0.5
215 1 0.63471 0.466154 0.5
214 1 0.685631 0.46883 0.5
178 1 0.870173 0.440941 0.5
198 1 0.923853 0.448692 0.5
180 1 0.974342 0.454712 0.5
202 1 0.0468975 0.505997 0.5
203 1 0.0944536 0.514324 0.5
167 1 0.331685 0.488986 0.5
231 1 0.384186 0.490744 0.5
230 1 0.436255 0.489397 0.5
212 1 0.486035 0.501085 0.5
233 1 0.543936 0.505792 0.5
197 1 0.736047 0.47687 0.5
236 1 0.786104 0.483875 0.5
237 1 0.838119 0.485662 0.5
258 1 0.889128 0.48744 0.5
240 1 0.942851 0.49301 0.5
221 1 0.996438 0.501079 0.5
144 1 0.145871 0.520084 0.5
228 1 0.196679 0.525379 0.5
206 1 0.255782 0.532537 0.5
188 1 0.306305 0.529825 0.5
249 1 0.358643 0.53634 0.5
270 1 0.411284 0.538312 0.5
269 1 0.460789 0.546617 0.5
213 1 0.595127 0.510178 0.5
234 1 0.645942 0.516919 0.5
194 1 0.696118 0.518635 0.5
177 1 0.750962 0.527424 0.5
261 1 0.802333 0.531779 0.5
257 1 0.85939 0.530968 0.5
161 1 0.912445 0.539756 0.5
222 1 0.96753 0.54218 0.5
223 1 0.0171225 0.547328 0.5
225 1 0.0668655 0.558119 0.5
205 1 0.116544 0.561891 0.5
229 1 0.167207 0.573176 0.5
267 1 0.218612 0.574588 0.5
287 1 0.276798 0.579399 0.5
247 1 0.327739 0.580957 0.5
209 1 0.378547 0.589036 0.5
253 1 0.515067 0.550675 0.5
273 1 0.564638 0.553535 0.5
272 1 0.616784 0.557321 0.5
216 1 0.667968 0.562191 0.5
235 1 0.716419 0.566205 0.5
255 1 0.778047 0.576237 0.5
239 1 0.830497 0.581349 0.5
224 1 0.0389354 0.598719 0.5
226 1 0.0875918 0.609106 0.5
185 1 0.143937 0.613552 0.5
207 1 0.19792 0.619448 0.5
227 1 0.248953 0.627794 0.5
251 1 0.429665 0.585923 0.5
252 1 0.482292 0.592542 0.5
313 1 0.540131 0.596936 0.5
275 1 0.595706 0.60646 0.5
254 1 0.648689 0.610348 0.5
219 1 0.884226 0.581745 0.5
241 1 0.939583 0.583467 0.5
243 1 0.986314 0.599243 0.5
282 1 0.0101188 0.642958 0.5
246 1 0.301188 0.626136 0.5
248 1 0.35357 0.632937 0.5
250 1 0.403567 0.634059 0.5
271 1 0.455264 0.638215 0.5
292 1 0.5093 0.649268 0.5
291 1 0.560735 0.647606 0.5
331 1 0.611119 0.654974 0.5
295 1 0.701041 0.616413 0.5
259 1 0.749149 0.618599 0.5
260 1 0.802531 0.622103 0.5
218 1 0.853418 0.640056 0.5
280 1 0.903755 0.634889 0.5
242 1 0.956923 0.641722 0.5
281 1 0.0587759 0.66265 0.5
204 1 0.110198 0.659017 0.5
262 1 0.165565 0.664135 0.5
263 1 0.217407 0.668697 0.5
264 1 0.270884 0.675344 0.5
288 1 0.321027 0.675166 0.5
268 1 0.375661 0.67755 0.5
290 1 0.428286 0.680539 0.5
274 1 0.665996 0.663921 0.5
296 1 0.718823 0.668647 0.5
279 1 0.77009 0.6649 0.5
256 1 0.821677 0.679315 0.5
303 1 0.0321134 0.706875 0.5
283 1 0.0808769 0.705218 0.5
245 1 0.135658 0.705401 0.5
285 1 0.191713 0.715205 0.5
244 1 0.241978 0.715702 0.5
266 1 0.295515 0.721759 0.5
328 1 0.394046 0.722332 0.5
293 1 0.4783 0.687779 0.5
310 1 0.530282 0.694747 0.5
353 1 0.579628 0.69658 0.5
314 1 0.631499 0.701306 0.5
315 1 0.686222 0.709985 0.5
316 1 0.746578 0.715445 0.5
276 1 0.797143 0.726185 0.5
278 1 0.880376 0.687031 0.5
300 1 0.932991 0.686391 0.5
301 1 0.984521 0.689353 0.5
284 1 0.0599215 0.755528 0.5
339 1 0.115142 0.752409 0.5
321 1 0.216683 0.763675 0.5
311 1 0.34465 0.726058 0.5
332 1 0.445913 0.729513 0.5
309 1 0.49856 0.733298 0.5
294 1 0.547743 0.742372 0.5
334 1 0.600632 0.744563 0.5
336 1 0.655133 0.748281 0.5
298 1 0.847269 0.726784 0.5
337 1 0.899727 0.734631 0.5
277 1 0.958326 0.733727 0.5
323 1 0.00761641 0.75127 0.5
325 1 0.163331 0.755556 0.5
343 1 0.264121 0.768298 0.5
308 1 0.314863 0.771655 0.5
289 1 0.363478 0.782565 0.5
329 1 0.416555 0.77601 0.5
312 1 0.469148 0.784833 0.5
350 1 0.520045 0.791308 0.5
357 1 0.714035 0.754742 0.5
356 1 0.764666 0.767237 0.5
318 1 0.825486 0.773285 0.5
379 1 0.872472 0.778661 0.5
297 1 0.925632 0.776108 0.5
319 1 0.0282865 0.796266 0.5
299 1 0.0848229 0.802092 0.5
320 1 0.13518 0.799864 0.5
305 1 0.185611 0.811957 0.5
286 1 0.237106 0.810214 0.5
306 1 0.289867 0.820047 0.5
348 1 0.340826 0.829601 0.5
347 1 0.39086 0.825198 0.5
366 1 0.440883 0.825722 0.5
330 1 0.492563 0.835856 0.5
333 1 0.570609 0.788708 0.5
335 1 0.627567 0.794963 0.5
377 1 0.678375 0.796999 0.5
317 1 0.729654 0.809581 0.5
358 1 0.786071 0.820257 0.5
378 1 0.838598 0.822246 0.5
302 1 0.976015 0.789049 0.5
363 1 0.0516541 0.842724 0.5
324 1 0.10306 0.850419 0.5
322 1 0.156834 0.854779 0.5
304 1 0.208021 0.857784 0.5
307 1 0.258141 0.859601 0.5
352 1 0.546088 0.838328 0.5
351 1 0.595815 0.831212 0.5
372 1 0.643266 0.853102 0.5
355 1 0.698407 0.860168 0.5
397 1 0.747954 0.856766 0.5
361 1 0.893596 0.827573 0.5
342 1 0.944389 0.835944 0.5
338 1 0.999461 0.839138 0.5
359 1 0.0209917 0.893887 0.5
340 1 0.0705768 0.890966 0.5
265 1 0.308396 0.870906 0.5
346 1 0.364017 0.872104 0.5
370 1 0.416487 0.869634 0.5
392 1 0.468983 0.881566 0.5
369 1 0.52377 0.881623 0.5
391 1 0.575218 0.879267 0.5
393 1 0.663617 0.899434 0.5
398 1 0.812752 0.865672 0.5
396 1 0.86766 0.873664 0.5
360 1 0.921377 0.879592 0.5
16 1 0.970977 0.882053 0.5
345 1 0.126176 0.895771 0.5
368 1 0.179042 0.901267 0.5
326 1 0.230976 0.906449 0.5
327 1 0.282058 0.915627 0.5
384 1 0.334609 0.915522 0.5
387 1 0.383226 0.919367 0.5
371 1 0.437399 0.927388 0.5
7 1 0.508927 0.934087 0.5
354 1 0.714369 0.907446 0.5
375 1 0.77431 0.90197 0.5
13 1 0.746166 0.946985 0.5
394 1 0.83863 0.913189 0.5
399 1 0.88961 0.918347 0.5
383 1 0.0418826 0.940814 0.5
5 1 0.0909303 0.939466 0.5
344 1 0.143422 0.950819 0.5
386 1 0.199468 0.955443 0.5
385 1 0.250871 0.956262 0.5
4 1 0.306466 0.960569 0.5
8 1 0.358618 0.961713 0.5
27 1 0.409121 0.970505 0.5
9 1 0.570915 0.9347 0.5
10 1 0.615786 0.910467 0.5
374 1 0.624901 0.962073 0.5
376 1 0.681299 0.948726 0.5
56 1 0.852576 0.961471 0.5
36 1 0.939934 0.92987 0.5
1 1 0.991764 0.934892 0.5
80 1 0.0136245 0.984601 0.5
341 1 0.0645372 0.986389 0.5
21 1 0.113824 0.990683 0.5
22 1 0.164785 1.00029 0.5
365 1 0.214704 0.0046506 0.5
349 1 0.468928 0.968321 0.5
51 1 0.520645 0.986109 0.5
390 1 0.573578 0.991183 0.5
14 1 0.591961 0.0391759 0.5
35 1 0.660226 0.995408 0.5
76 1 0.716112 0.987465 0.5
57 1 0.800134 0.952108 0.5
395 1 0.907212 0.969 0.5
17 1 0.96401 0.978123 0.5
