ITEM: TIMESTEP
100000
ITEM: NUMBER OF ATOMS
400
ITEM: BOX BOUNDS pp pp pp
0.0000000000000000e+00 2.0519567041703080e+01
0.0000000000000000e+00 2.0519567041703080e+01
-5.1298917604257699e-01 5.1298917604257699e-01
ITEM: ATOMS id type xs ys zs
5 1 0.00801109 0.0450835 0.5
258 1 0.215853 0.91122 0.5
194 1 0.297171 0.956547 0.5
372 1 0.573822 0.0236306 0.5
29 1 0.662399 0.0886149 0.5
339 1 0.716888 0.0888014 0.5
290 1 0.796037 0.0373583 0.5
68 1 0.922838 0.00256903 0.5
265 1 0.944691 0.961378 0.5
153 1 0.963412 0.0329902 0.5
350 1 0.0360603 0.980686 0.5
274 1 0.966766 0.0810724 0.5
323 1 0.135304 0.96947 0.5
233 1 0.189395 0.953302 0.5
260 1 0.220442 0.00757429 0.5
32 1 0.473102 0.0367336 0.5
328 1 0.474586 0.0895751 0.5
85 1 0.557021 0.977385 0.5
84 1 0.525258 0.0377675 0.5
312 1 0.576222 0.20414 0.5
96 1 0.596995 0.154084 0.5
107 1 0.696561 0.13158 0.5
140 1 0.765739 0.0843931 0.5
79 1 0.860066 0.0570431 0.5
259 1 0.921896 0.0637799 0.5
235 1 0.0570672 0.0281429 0.5
38 1 0.109307 0.0188314 0.5
360 1 0.246889 0.0515182 0.5
366 1 0.428594 0.0664908 0.5
100 1 0.261915 0.102705 0.5
90 1 0.517666 0.0824379 0.5
382 1 0.558392 0.111373 0.5
356 1 0.605032 0.0997578 0.5
76 1 0.751218 0.132313 0.5
7 1 0.815854 0.0865917 0.5
198 1 0.892807 0.150387 0.5
192 1 0.889186 0.102205 0.5
152 1 0.932472 0.118109 0.5
166 1 0.0496367 0.107557 0.5
329 1 0.0804162 0.0682678 0.5
201 1 0.24224 0.963953 0.5
66 1 0.305382 0.084179 0.5
288 1 0.307435 0.037075 0.5
270 1 0.510977 0.132147 0.5
42 1 0.632411 0.204403 0.5
30 1 0.64281 0.132361 0.5
385 1 0.800145 0.138064 0.5
236 1 0.845206 0.123856 0.5
13 1 0.842779 0.173433 0.5
104 1 0.788881 0.197036 0.5
41 1 0.83978 0.221223 0.5
203 1 0.00290695 0.111462 0.5
31 1 0.0735623 0.147925 0.5
78 1 0.196369 0.0486194 0.5
306 1 0.161192 0.00900313 0.5
37 1 0.209714 0.0948054 0.5
269 1 0.419862 0.113581 0.5
138 1 0.467752 0.191853 0.5
394 1 0.602436 0.250672 0.5
310 1 0.570324 0.29937 0.5
250 1 0.671853 0.171247 0.5
309 1 0.745451 0.181655 0.5
363 1 0.744326 0.229681 0.5
110 1 0.884829 0.201282 0.5
164 1 0.972672 0.14643 0.5
400 1 0.139924 0.0569557 0.5
383 1 0.141059 0.143681 0.5
117 1 0.162201 0.100413 0.5
231 1 0.302402 0.13913 0.5
14 1 0.347531 0.108115 0.5
397 1 0.465501 0.142051 0.5
211 1 0.551809 0.163588 0.5
338 1 0.518838 0.200708 0.5
120 1 0.554511 0.251365 0.5
218 1 0.654008 0.26444 0.5
199 1 0.798099 0.24552 0.5
187 1 0.977659 0.244563 0.5
26 1 0.934053 0.172268 0.5
35 1 0.0648901 0.20022 0.5
292 1 0.114471 0.104908 0.5
388 1 0.246668 0.146889 0.5
342 1 0.339013 0.17963 0.5
254 1 0.429281 0.224577 0.5
52 1 0.602646 0.340643 0.5
387 1 0.618663 0.295105 0.5
151 1 0.699999 0.209671 0.5
6 1 0.930535 0.222895 0.5
209 1 0.84823 0.321462 0.5
10 1 0.933208 0.271878 0.5
374 1 0.0270683 0.167138 0.5
315 1 0.0899005 0.245797 0.5
301 1 0.111281 0.185004 0.5
190 1 0.13474 0.231715 0.5
193 1 0.198375 0.139178 0.5
303 1 0.339255 0.227243 0.5
3 1 0.384046 0.0816064 0.5
174 1 0.382267 0.201982 0.5
267 1 0.486137 0.239145 0.5
46 1 0.478476 0.306951 0.5
219 1 0.666424 0.312149 0.5
298 1 0.702815 0.259198 0.5
69 1 0.75789 0.280011 0.5
262 1 0.899054 0.313463 0.5
121 1 0.00474025 0.284471 0.5
47 1 0.986663 0.195449 0.5
87 1 0.165316 0.187246 0.5
313 1 0.230663 0.241077 0.5
93 1 0.274468 0.184601 0.5
149 1 0.37547 0.147761 0.5
130 1 0.390464 0.254404 0.5
398 1 0.422918 0.165048 0.5
326 1 0.428313 0.320901 0.5
238 1 0.539645 0.386215 0.5
343 1 0.522435 0.289533 0.5
226 1 0.60383 0.387983 0.5
354 1 0.839519 0.270973 0.5
247 1 0.0252395 0.237606 0.5
80 1 0.0544995 0.289928 0.5
217 1 0.101462 0.294004 0.5
334 1 0.213775 0.186754 0.5
131 1 0.284527 0.240099 0.5
43 1 0.33476 0.315856 0.5
158 1 0.369064 0.350246 0.5
60 1 0.384447 0.301369 0.5
346 1 0.547507 0.339013 0.5
330 1 0.611307 0.446475 0.5
215 1 0.647656 0.359747 0.5
367 1 0.867689 0.363576 0.5
36 1 0.712772 0.307981 0.5
2 1 0.803484 0.302933 0.5
72 1 0.835312 0.400121 0.5
205 1 0.886655 0.260978 0.5
95 1 0.948689 0.31597 0.5
364 1 0.18463 0.232472 0.5
208 1 0.244486 0.287201 0.5
311 1 0.347049 0.273106 0.5
44 1 0.439642 0.271378 0.5
111 1 0.520458 0.445942 0.5
54 1 0.565334 0.428954 0.5
239 1 0.770148 0.347069 0.5
370 1 0.696419 0.355637 0.5
248 1 0.83815 0.468717 0.5
146 1 0.874444 0.430566 0.5
143 1 0.965081 0.362989 0.5
92 1 0.0705551 0.338083 0.5
368 1 0.13805 0.325791 0.5
139 1 0.1498 0.278108 0.5
34 1 0.290817 0.28711 0.5
75 1 0.276303 0.337577 0.5
352 1 0.323154 0.36894 0.5
63 1 0.487374 0.409204 0.5
222 1 0.455638 0.37 0.5
70 1 0.49966 0.350116 0.5
362 1 0.656944 0.409235 0.5
200 1 0.785534 0.398444 0.5
378 1 0.81613 0.354972 0.5
142 1 0.916379 0.358065 0.5
240 1 0.126559 0.371014 0.5
191 1 0.196635 0.2932 0.5
115 1 0.311021 0.421679 0.5
384 1 0.360611 0.405158 0.5
263 1 0.40135 0.384746 0.5
316 1 0.57307 0.529043 0.5
105 1 0.573982 0.477594 0.5
291 1 0.627493 0.496894 0.5
183 1 0.730997 0.39271 0.5
21 1 0.795338 0.446502 0.5
375 1 0.948794 0.454863 0.5
393 1 0.923049 0.404946 0.5
185 1 0.98052 0.411223 0.5
276 1 0.117939 0.419265 0.5
341 1 0.00199073 0.33242 0.5
167 1 0.2179 0.398605 0.5
396 1 0.225439 0.335577 0.5
242 1 0.466712 0.562262 0.5
395 1 0.466771 0.458203 0.5
77 1 0.618181 0.547439 0.5
23 1 0.699428 0.427922 0.5
129 1 0.854595 0.521458 0.5
348 1 0.151429 0.451655 0.5
177 1 0.0322169 0.370294 0.5
109 1 0.24755 0.4349 0.5
81 1 0.341996 0.457558 0.5
45 1 0.441051 0.41871 0.5
353 1 0.4269 0.48291 0.5
20 1 0.530133 0.49428 0.5
114 1 0.715858 0.48079 0.5
266 1 0.746896 0.443315 0.5
49 1 0.834207 0.564353 0.5
73 1 0.905078 0.473352 0.5
318 1 0.942427 0.502863 0.5
65 1 1.00177 0.456229 0.5
377 1 0.0800385 0.390419 0.5
371 1 0.125351 0.498662 0.5
181 1 0.168004 0.400075 0.5
19 1 0.183275 0.3507 0.5
304 1 0.324202 0.506808 0.5
279 1 0.379946 0.505046 0.5
335 1 0.530086 0.619887 0.5
61 1 0.557165 0.575613 0.5
48 1 0.519102 0.546912 0.5
320 1 0.664723 0.562938 0.5
133 1 0.669567 0.468343 0.5
287 1 0.762962 0.491627 0.5
162 1 0.900152 0.530752 0.5
168 1 0.990482 0.50715 0.5
355 1 0.115504 0.546176 0.5
299 1 0.196675 0.437426 0.5
148 1 0.273412 0.384936 0.5
333 1 0.246989 0.559717 0.5
108 1 0.355633 0.544818 0.5
106 1 0.479653 0.510798 0.5
379 1 0.420849 0.54055 0.5
261 1 0.617068 0.594109 0.5
336 1 0.659045 0.616452 0.5
189 1 0.683096 0.51797 0.5
317 1 0.810764 0.503362 0.5
391 1 0.892264 0.581246 0.5
228 1 0.0321957 0.419951 0.5
24 1 0.0960859 0.461208 0.5
25 1 0.0803004 0.512222 0.5
214 1 0.277289 0.519023 0.5
86 1 0.396661 0.439013 0.5
381 1 0.388665 0.585003 0.5
314 1 0.435065 0.598036 0.5
179 1 0.576991 0.62097 0.5
359 1 0.579622 0.694736 0.5
268 1 0.717394 0.554332 0.5
161 1 0.781275 0.552422 0.5
160 1 0.795554 0.598177 0.5
337 1 0.991214 0.556332 0.5
286 1 0.0492689 0.466004 0.5
28 1 0.179506 0.489133 0.5
101 1 0.286916 0.465046 0.5
163 1 0.198851 0.574405 0.5
141 1 0.305732 0.561577 0.5
186 1 0.343551 0.605393 0.5
135 1 0.387808 0.633731 0.5
344 1 0.479278 0.613565 0.5
119 1 0.540798 0.664295 0.5
249 1 0.630921 0.696316 0.5
97 1 0.620437 0.650732 0.5
103 1 0.746954 0.595244 0.5
39 1 0.820338 0.652316 0.5
176 1 0.844585 0.614666 0.5
8 1 0.0366622 0.525764 0.5
12 1 0.0256929 0.592522 0.5
188 1 0.0601227 0.644671 0.5
327 1 0.0878238 0.584184 0.5
74 1 0.232498 0.479967 0.5
293 1 0.212811 0.525283 0.5
227 1 0.283176 0.606 0.5
125 1 0.30091 0.656839 0.5
373 1 0.439966 0.646807 0.5
278 1 0.484788 0.663891 0.5
289 1 0.607058 0.738964 0.5
264 1 0.673461 0.714581 0.5
241 1 0.669651 0.668382 0.5
165 1 0.976908 0.602244 0.5
124 1 0.0324236 0.68915 0.5
184 1 0.0831615 0.687245 0.5
94 1 0.121253 0.721056 0.5
243 1 0.161159 0.531996 0.5
322 1 0.386335 0.684245 0.5
244 1 0.341469 0.692433 0.5
15 1 0.435995 0.708738 0.5
252 1 0.530342 0.715191 0.5
246 1 0.709719 0.626236 0.5
91 1 0.893763 0.700216 0.5
182 1 0.943647 0.552329 0.5
82 1 0.104515 0.629525 0.5
137 1 0.135917 0.59122 0.5
253 1 0.254389 0.665665 0.5
305 1 0.293911 0.705431 0.5
331 1 0.502913 0.758319 0.5
347 1 0.483085 0.710415 0.5
16 1 0.569846 0.800736 0.5
126 1 0.665204 0.760683 0.5
62 1 0.732623 0.668836 0.5
136 1 0.772609 0.695201 0.5
113 1 0.770922 0.640995 0.5
17 1 0.863782 0.749419 0.5
56 1 0.920006 0.622658 0.5
173 1 0.92869 0.66985 0.5
53 1 0.0118499 0.636185 0.5
229 1 0.989829 0.724328 0.5
55 1 0.129194 0.672621 0.5
169 1 0.165516 0.69993 0.5
294 1 0.175014 0.621846 0.5
225 1 0.227804 0.618536 0.5
210 1 0.288115 0.750887 0.5
145 1 0.452434 0.754894 0.5
213 1 0.474476 0.80503 0.5
285 1 0.724371 0.715931 0.5
380 1 0.760953 0.746031 0.5
275 1 0.83346 0.708212 0.5
358 1 0.879801 0.655415 0.5
224 1 0.939813 0.715845 0.5
257 1 0.980301 0.672056 0.5
132 1 0.198848 0.738566 0.5
159 1 0.24339 0.709511 0.5
180 1 0.332153 0.788723 0.5
365 1 0.353062 0.737805 0.5
134 1 0.401536 0.747481 0.5
271 1 0.482068 0.89397 0.5
389 1 0.616665 0.786931 0.5
283 1 0.716234 0.769077 0.5
321 1 0.812467 0.777732 0.5
223 1 0.907833 0.769032 0.5
127 1 0.915798 0.820333 0.5
216 1 0.957801 0.760808 0.5
22 1 0.163154 0.831797 0.5
57 1 0.0750852 0.733924 0.5
27 1 0.20945 0.662682 0.5
207 1 0.391532 0.845054 0.5
178 1 0.556525 0.754608 0.5
369 1 0.765514 0.79645 0.5
245 1 0.803254 0.82386 0.5
155 1 0.743745 0.846243 0.5
1 1 0.840922 0.849509 0.5
296 1 0.890077 0.857138 0.5
128 1 0.0305386 0.753161 0.5
295 1 0.10708 0.769641 0.5
18 1 0.286491 0.799695 0.5
122 1 0.342998 0.833788 0.5
147 1 0.412548 0.891076 0.5
157 1 0.449216 0.854611 0.5
156 1 0.418367 0.800537 0.5
88 1 0.503113 0.852177 0.5
340 1 0.520675 0.807605 0.5
361 1 0.705997 0.820646 0.5
195 1 0.751589 0.902104 0.5
273 1 0.797426 0.885331 0.5
64 1 0.792388 0.937145 0.5
351 1 0.862201 0.800577 0.5
170 1 0.968081 0.807157 0.5
221 1 0.0916202 0.876253 0.5
50 1 0.0657074 0.78934 0.5
308 1 0.238807 0.761313 0.5
399 1 0.311971 0.890744 0.5
284 1 0.529871 0.890526 0.5
150 1 0.605559 0.838866 0.5
116 1 0.658481 0.808747 0.5
349 1 0.690968 0.984988 0.5
123 1 0.702061 0.875361 0.5
220 1 0.78787 0.983716 0.5
89 1 0.915905 0.898502 0.5
376 1 0.950816 0.852179 0.5
51 1 0.0551056 0.834338 0.5
196 1 0.0451326 0.885994 0.5
281 1 0.115906 0.816792 0.5
171 1 0.152021 0.756562 0.5
282 1 0.270626 0.916031 0.5
112 1 0.339164 0.936756 0.5
118 1 0.362254 0.891223 0.5
67 1 0.424329 0.945875 0.5
332 1 0.470331 0.943393 0.5
204 1 0.55029 0.847989 0.5
386 1 0.66038 0.855126 0.5
237 1 0.019516 0.79874 0.5
255 1 0.00693223 0.924027 0.5
390 1 0.202853 0.791935 0.5
280 1 0.336394 0.989417 0.5
98 1 0.580375 0.892905 0.5
230 1 0.628246 0.909109 0.5
83 1 0.676479 0.922085 0.5
300 1 0.737203 0.992507 0.5
307 1 0.725374 0.941685 0.5
325 1 0.880511 0.934945 0.5
40 1 0.840053 0.961655 0.5
392 1 0.00436297 0.846915 0.5
71 1 0.0544362 0.937628 0.5
319 1 0.105268 0.931934 0.5
345 1 0.141496 0.876422 0.5
175 1 0.188873 0.871781 0.5
11 1 0.286421 0.847249 0.5
212 1 0.379841 0.963651 0.5
58 1 0.395807 0.0150539 0.5
297 1 0.449028 0.994131 0.5
272 1 0.587231 0.939622 0.5
206 1 0.644579 0.958853 0.5
33 1 0.64815 0.00752509 0.5
99 1 0.691683 0.0370028 0.5
9 1 0.835252 0.0112202 0.5
197 1 0.848086 0.898324 0.5
59 1 0.961594 0.912774 0.5
234 1 0.989493 0.981763 0.5
324 1 0.0882309 0.976704 0.5
4 1 0.151433 0.925854 0.5
172 1 0.24637 0.873105 0.5
277 1 0.241708 0.823124 0.5
154 1 0.277582 0.99702 0.5
256 1 0.358271 0.0440691 0.5
102 1 0.506673 0.987412 0.5
144 1 0.526299 0.938218 0.5
232 1 0.603845 0.983664 0.5
251 1 0.562713 0.0676577 0.5
357 1 0.626721 0.056602 0.5
302 1 0.745586 0.0442275 0.5
202 1 0.878067 0.990446 0.5
