ITEM: TIMESTEP
100000
ITEM: NUMBER OF ATOMS
2048
ITEM: BOX BOUNDS pp pp pp
0.0000000000000000e+00 1.3679807573413575e+01
0.0000000000000000e+00 1.3679807573413575e+01
0.0000000000000000e+00 1.3679807573413575e+01
ITEM: ATOMS id type xs ys zs
671 1 0.912559 0.999311 0.0410942
1208 1 0.79374 0.105974 0.0956655
1771 1 0.816832 0.867926 0.837495
259 1 0.213012 0.114901 0.0471679
145 1 0.280861 0.970187 0.0414494
223 1 0.395306 0.198802 0.909015
1494 1 0.997689 0.98419 0.2499
1661 1 0.182704 0.0907166 0.975242
1342 1 0.64071 0.0617009 0.0624386
941 1 0.825148 0.218475 0.9759
1086 1 0.812808 0.163716 0.0599802
980 1 0.13405 0.223362 0.0931626
1877 1 0.242304 0.2164 0.130737
1527 1 0.451643 0.317826 0.995888
264 1 0.687622 0.144237 0.901611
432 1 0.0330363 0.127704 1.00055
709 1 0.967363 0.154643 0.142523
1147 1 0.209593 0.277192 0.169769
1759 1 0.320061 0.276016 0.966925
1830 1 0.484621 0.235388 0.969044
39 1 0.415897 0.439596 0.0234425
1937 1 0.0527602 0.258954 0.0254493
1454 1 0.501941 0.469929 0.853505
1496 1 0.586502 0.217859 0.0914689
415 1 0.361733 0.380271 0.195089
468 1 0.49344 0.431244 0.917811
2039 1 0.5706 0.430864 0.99426
1563 1 0.801854 0.240049 0.0458743
590 1 0.949477 0.218452 0.10334
1894 1 0.223799 0.524839 0.176431
1966 1 0.380618 0.378411 0.0182741
1811 1 0.535659 0.448943 0.072715
465 1 0.746352 0.340981 0.913084
301 1 0.910435 0.47218 0.994727
1570 1 0.400893 0.43866 0.181005
1845 1 0.583766 0.508153 0.997274
1974 1 0.692788 0.634233 0.0181112
1386 1 0.929788 0.34828 0.0156085
1017 1 0.991217 0.31554 0.992602
1674 1 0.985985 0.674646 0.17282
729 1 0.560303 0.606985 0.989556
700 1 0.761508 0.452715 0.889614
1363 1 0.668399 0.533649 0.976614
23 1 0.258363 0.569973 0.0692698
1043 1 0.848587 0.691767 0.0991078
1915 1 0.835932 0.617312 0.0404206
449 1 0.920736 0.495973 0.0807154
1444 1 0.191747 0.62399 0.0852549
1172 1 0.214243 0.509334 0.0780911
1964 1 0.117741 0.594738 0.998762
1897 1 0.331959 0.567899 0.952631
1385 1 0.511815 0.490585 0.962698
1032 1 0.568408 0.510019 0.918634
298 1 0.696427 0.782643 0.95592
1187 1 0.980638 0.653178 0.967733
557 1 0.0799351 0.705684 0.08815
2014 1 0.321056 0.603425 0.0975052
2016 1 0.384308 0.670885 0.00499737
1285 1 0.928925 0.728881 0.0760565
1840 1 0.396251 0.597988 0.0143357
1745 1 0.879831 0.686115 0.953452
1684 1 0.163357 0.851116 0.981642
1882 1 0.253877 0.767154 0.148354
798 1 0.394076 0.770673 0.078959
600 1 0.592258 0.789295 0.966743
7 1 0.788047 0.658526 0.939947
786 1 0.338524 0.97314 0.950776
606 1 0.212983 0.828754 0.0656604
2012 1 0.328238 0.788702 0.126586
803 1 0.551633 0.877883 0.143265
1926 1 0.727517 0.852178 0.0496024
1011 1 0.129554 0.800139 0.0434863
1329 1 0.105222 0.873036 0.0174996
504 1 0.293956 0.912317 0.964297
222 1 0.576089 0.977674 0.987852
1641 1 0.4301 0.785224 0.1825
483 1 0.846118 0.935427 0.0196904
1113 1 0.957936 0.0663392 0.869401
1766 1 0.189388 0.00373877 0.0211164
11 1 0.370025 0.856777 0.0580197
319 1 0.555201 0.879871 0.0531853
985 1 0.653289 0.107724 0.118808
514 1 0.214007 0.0532883 0.0875163
138 1 0.350497 0.971514 0.0625144
656 1 0.40964 0.068767 0.0535421
1046 1 0.523512 0.0239059 0.288176
1969 1 0.68328 0.998939 0.0902929
1350 1 0.662036 0.880675 0.156375
2023 1 0.408019 0.111004 0.107203
646 1 0.320857 0.0500358 0.0425979
1413 1 0.541512 0.0217956 0.0728452
847 1 0.874217 0.868966 0.0114906
1209 1 0.937775 0.0638394 0.0800127
1202 1 0.177153 0.897657 0.176266
239 1 0.582142 0.116515 0.179064
509 1 0.514893 0.989543 0.148928
898 1 0.835791 0.00480157 0.0118997
1741 1 0.696514 0.997934 0.944297
380 1 0.883743 0.120288 0.963187
1941 1 0.25849 0.132304 0.944183
1789 1 0.455176 0.16197 0.127186
249 1 0.523676 0.142338 0.983642
883 1 0.193919 0.273999 0.0947939
1655 1 0.551645 0.141425 0.0574285
2024 1 0.660385 0.103323 0.00419975
823 1 0.890844 0.128643 0.0611537
1042 1 0.188032 0.188958 0.0476208
1918 1 0.39684 0.312666 0.138799
288 1 0.379863 0.291882 0.28097
1091 1 0.778433 0.360574 0.980391
366 1 0.526967 0.266713 0.125685
714 1 0.1138 0.302492 0.138665
1089 1 0.154576 0.200122 0.961941
76 1 0.446783 0.264644 0.081953
1247 1 0.812822 0.258629 0.202219
482 1 0.358658 0.303887 0.201817
566 1 0.423991 0.332824 0.0586056
43 1 0.603272 0.40058 0.066509
187 1 0.948352 0.272153 0.0566927
2002 1 0.952811 0.398315 0.974658
1280 1 0.153324 0.396693 0.222702
1165 1 0.621469 0.466371 0.901606
220 1 0.700347 0.396913 0.0522229
439 1 0.371986 0.501715 0.955645
1695 1 0.380303 0.558331 0.10066
540 1 0.484791 0.486609 0.0390517
1372 1 0.580194 0.399375 0.168791
1254 1 0.301703 0.583336 0.241376
300 1 0.45596 0.531233 0.13633
458 1 0.650359 0.663446 0.142459
1923 1 0.915572 0.40312 0.086715
40 1 0.898112 0.546313 0.998496
1462 1 0.828097 0.379908 0.125992
49 1 0.95048 0.441507 0.040634
1361 1 0.285572 0.646168 0.185857
1572 1 0.430893 0.533457 0.0352808
836 1 0.388153 0.421866 0.941651
1764 1 0.599161 0.601889 0.141679
1304 1 0.247355 0.727353 0.20288
912 1 0.262386 0.517533 0.998358
364 1 0.697454 0.617408 0.0989876
2038 1 0.316341 0.724472 0.155581
1911 1 0.416553 0.61052 0.150977
961 1 0.520281 0.706411 0.00707696
342 1 0.588477 0.68085 0.965683
869 1 0.837191 0.627188 0.200048
1268 1 0.900068 0.580918 0.0655721
226 1 0.839982 0.619884 0.963217
166 1 0.883209 0.764998 0.119545
1699 1 0.031746 0.803756 0.936359
1125 1 0.240514 0.420787 0.0470309
1844 1 0.643786 0.69911 0.25341
1435 1 0.659158 0.681825 0.0713924
500 1 0.906877 0.799508 0.0174798
1298 1 0.147457 0.831423 0.121433
1614 1 0.617312 0.731264 0.0175373
436 1 0.157012 0.708364 0.125651
1175 1 0.369148 0.995185 0.189237
1896 1 0.348773 0.696574 0.0818206
324 1 0.0806855 0.864552 0.0929928
1053 1 0.429713 0.879257 0.997068
634 1 0.652159 0.811805 0.132666
1181 1 0.947438 0.800175 0.091355
995 1 0.408457 0.993509 0.326808
59 1 0.526905 0.936757 0.192869
44 1 0.864277 0.954754 0.930866
1912 1 0.990968 0.856655 0.902321
900 1 0.236891 0.918622 0.0684411
743 1 0.216108 0.101705 0.218812
210 1 0.407969 0.923632 0.0588122
1883 1 0.407308 0.990087 0.106894
1796 1 0.386961 0.874889 0.925754
32 1 0.5882 0.985015 0.184371
161 1 0.639027 0.870612 0.0806984
1035 1 0.0127145 0.911037 0.0344095
280 1 0.939901 0.964367 0.220585
497 1 0.97819 0.957152 0.158845
472 1 0.866017 0.0535891 0.0665739
368 1 0.058134 0.868724 0.939073
1408 1 0.829482 0.0392173 0.199089
1219 1 0.277278 0.159719 0.0826038
1678 1 0.346824 0.237715 0.228282
1657 1 0.391238 0.127065 0.192818
582 1 0.666492 0.0372473 0.155795
292 1 0.700345 0.929936 0.092078
887 1 0.964747 0.999548 0.946029
1823 1 0.28513 0.100348 0.00743698
1790 1 0.512392 0.128396 0.16223
189 1 0.560231 0.22518 0.987167
1513 1 0.895233 0.0436778 0.152725
134 1 0.150078 0.0604476 0.0431173
1698 1 0.466211 0.124753 0.0586789
970 1 0.45486 0.0152737 0.215305
689 1 0.660376 0.169276 0.0478861
1565 1 0.551564 0.0879596 0.0982034
1747 1 0.827536 0.111456 0.157583
42 1 0.0859976 0.0826989 0.0110024
237 1 0.486489 0.0616225 0.140796
2029 1 0.524656 0.277475 0.0534418
208 1 0.595378 0.0257213 0.121536
924 1 0.749711 0.147349 0.0170631
611 1 0.913438 0.0669341 0.0138638
779 1 0.220016 0.259413 0.0142587
1990 1 0.203881 0.126668 0.117226
286 1 0.686675 0.174939 0.97327
1100 1 0.0465816 0.282631 0.10324
1371 1 0.0517072 0.0274879 0.131886
1755 1 0.530431 0.258247 0.226016
311 1 0.34625 0.161989 0.140248
335 1 0.575545 0.325993 0.159001
85 1 0.483199 0.374589 0.968337
676 1 0.713086 0.15056 0.0976347
1 1 0.992123 0.235304 0.160973
1807 1 0.963893 0.360435 0.270168
1173 1 0.269786 0.281155 0.099536
1953 1 0.461059 0.17375 0.19935
1917 1 0.00191715 0.20363 0.0311548
18 1 0.0825672 0.363158 0.101392
399 1 0.265952 0.401134 0.196263
950 1 0.446507 0.434314 0.096932
1603 1 0.585221 0.31786 0.0762236
619 1 0.00558896 0.34475 0.11419
1045 1 0.91575 0.375346 0.162843
1919 1 0.012342 0.454111 0.202101
363 1 0.391832 0.393172 0.297446
1020 1 0.470624 0.461044 0.158933
538 1 0.679339 0.44364 0.153789
1992 1 0.763967 0.209485 0.101215
1873 1 0.173105 0.437364 0.282936
1864 1 0.0869519 0.562932 0.136913
785 1 0.865636 0.379238 0.0303021
739 1 0.768493 0.355576 0.0894425
1399 1 0.634026 0.466181 0.038314
720 1 0.705599 0.463976 0.0683245
1865 1 0.72301 0.433833 0.984421
1604 1 0.0156585 0.553721 0.133809
1575 1 0.416953 0.55325 0.187777
854 1 0.528828 0.571962 0.155591
1097 1 0.994888 0.655964 0.040317
1583 1 0.212725 0.694202 0.0788869
224 1 0.162631 0.546095 0.125304
530 1 0.573416 0.669908 0.151986
460 1 0.677543 0.566375 0.0363775
1333 1 0.724728 0.677401 0.134703
1401 1 0.043618 0.644075 0.10616
13 1 0.19328 0.677171 0.229643
1971 1 0.372284 0.462468 0.119073
1305 1 0.545298 0.501046 0.11564
815 1 0.523295 0.631723 0.235045
1070 1 0.982554 0.577721 0.0452034
122 1 0.187979 0.761771 0.0836244
452 1 0.217392 0.674166 0.15396
9 1 0.57689 0.691953 0.0772732
1895 1 0.0625869 0.780638 0.0798284
1776 1 0.297489 0.869505 0.10689
1093 1 0.589529 0.81331 0.0383561
1436 1 0.614465 0.748011 0.155849
447 1 0.689259 0.789874 0.0277659
936 1 0.826901 0.59684 0.266074
1179 1 0.0109905 0.844532 0.0723759
1387 1 0.104388 0.963936 0.122433
777 1 0.448557 0.956774 0.165877
1617 1 0.604883 0.842605 0.178479
730 1 0.739949 0.804145 0.119933
1960 1 0.766111 0.986781 0.993544
575 1 0.0906735 0.843372 0.168615
1832 1 0.294517 0.8315 0.0132283
2044 1 0.398771 0.846503 0.149304
1094 1 0.961156 0.791565 0.970026
128 1 0.324044 0.0947063 0.192343
807 1 0.539106 0.950547 0.0787363
1083 1 0.500832 0.815786 0.0116143
707 1 0.722939 0.963345 0.152601
84 1 0.661812 0.997402 0.00384718
988 1 0.914748 0.946557 0.988208
1431 1 0.0713463 0.971673 0.245278
1531 1 0.36986 0.922662 0.123818
323 1 0.670098 0.0874211 0.22711
276 1 0.0866711 0.00457311 0.0462103
675 1 0.656449 0.013141 0.229345
183 1 0.725892 0.919725 0.00968982
1656 1 0.800918 0.877355 0.0306435
1816 1 0.253127 0.0314552 0.0198106
567 1 0.574188 0.966471 0.367729
738 1 0.726021 0.0270865 0.27461
1946 1 0.674268 0.220361 0.121304
1116 1 0.751027 0.976121 0.0747008
579 1 0.0493879 0.0357286 0.215852
1924 1 0.273227 0.0996397 0.129089
1959 1 0.73005 0.0898411 0.0577935
697 1 0.12172 0.128142 0.0639178
1130 1 0.27429 0.233794 0.235389
1136 1 0.501598 0.244435 0.308762
628 1 0.610768 0.18562 0.275702
578 1 0.847425 0.167902 0.234276
92 1 0.805161 0.0892313 0.249338
1420 1 0.0377066 0.190036 0.364852
573 1 0.353083 0.175601 0.0608108
200 1 0.54079 0.163459 0.343002
734 1 0.74653 0.0577852 0.202944
789 1 0.886265 0.317596 0.0987591
1987 1 0.607755 0.16502 0.99878
1316 1 0.729853 0.224049 0.214335
331 1 0.81578 0.190959 0.17193
1180 1 0.967054 0.124806 0.0628351
160 1 0.0695633 0.104193 0.17469
612 1 0.0566387 0.208209 0.0790454
1225 1 0.204915 0.236388 0.236105
1514 1 0.490076 0.0763487 0.210243
1357 1 0.632005 0.328879 0.225681
1244 1 0.13207 0.265245 0.980886
1447 1 0.297952 0.319942 0.159091
419 1 0.527459 0.189908 0.127554
1958 1 0.876904 0.343104 0.218158
456 1 0.180752 0.472181 0.215352
1613 1 0.45588 0.24211 0.221484
1252 1 0.503321 0.415114 0.0237052
576 1 0.776363 0.297646 0.256141
5 1 0.739776 0.401422 0.260243
353 1 0.0238273 0.417374 0.122064
38 1 0.320216 0.434796 0.166248
1597 1 0.452601 0.349189 0.281567
100 1 0.53575 0.462054 0.192645
1013 1 0.422603 0.424532 0.245647
790 1 0.656071 0.347735 0.092243
1623 1 0.692105 0.348851 0.152168
297 1 0.976449 0.609322 0.138842
284 1 0.270044 0.589785 0.148752
1629 1 0.282881 0.66423 0.10631
1544 1 0.289893 0.51259 0.112699
2022 1 0.439632 0.666951 0.0749163
351 1 0.448539 0.585198 0.0919862
177 1 0.666732 0.26956 0.0722682
1735 1 0.611532 0.458416 0.139465
242 1 0.856313 0.521627 0.0911269
1979 1 0.144632 0.473061 0.142206
493 1 0.483845 0.692022 0.262515
915 1 0.51876 0.551211 0.0458789
742 1 0.755974 0.598294 0.216721
186 1 0.772366 0.527147 0.149115
795 1 0.388445 0.737502 0.270774
758 1 0.292586 0.669024 0.0269593
1111 1 0.595124 0.558854 0.271323
283 1 0.94708 0.655882 0.0981178
159 1 0.902881 0.561955 0.269099
2036 1 0.0458971 0.791175 0.0157528
272 1 0.488186 0.738571 0.180497
543 1 0.67961 0.759762 0.268093
962 1 0.147014 0.89916 0.0908434
1190 1 0.422035 0.712865 0.125128
793 1 0.465937 0.779245 0.0686493
215 1 0.711296 0.730872 0.0775505
715 1 0.841635 0.716756 0.170367
1665 1 0.0612661 0.72624 0.150079
510 1 0.602641 0.766869 0.0879587
1930 1 0.518831 0.815201 0.100047
748 1 0.779605 0.72391 0.115469
253 1 0.139931 0.977601 0.214465
1023 1 0.320921 0.803872 0.264635
1913 1 0.676779 0.79138 0.3508
365 1 0.965495 0.853196 0.0105816
1407 1 0.438159 0.857354 0.0891162
1483 1 0.520822 0.847857 0.221975
1994 1 0.864514 0.709517 0.0257449
1511 1 0.912998 0.109933 0.135412
726 1 0.197584 0.802576 0.214876
391 1 0.391727 0.0586015 0.476869
431 1 0.442316 0.935087 0.237796
1800 1 0.630988 0.905605 0.224454
1633 1 0.795561 0.0327104 0.0736711
906 1 0.875117 0.784088 0.199381
1509 1 0.986319 0.901856 0.96333
339 1 0.14618 0.846257 0.232229
1862 1 0.411255 0.979126 0.404411
588 1 0.647105 0.0130733 0.306969
897 1 0.263655 0.889499 0.170488
1364 1 0.257139 0.154268 0.188538
1412 1 0.851322 0.848338 0.158308
398 1 0.256374 0.940104 0.237431
1257 1 0.630832 0.0902156 0.307744
1940 1 0.611352 0.257764 0.239772
143 1 0.718166 0.0824684 0.128418
350 1 0.778004 0.996718 0.416692
1947 1 0.187398 0.0140332 0.153256
1557 1 0.982798 0.0531642 0.166965
1047 1 0.293954 0.244313 0.0320169
659 1 0.42015 0.352452 0.35445
101 1 0.0623917 0.16635 0.47072
1330 1 0.233043 0.170691 0.264876
33 1 0.565716 0.186106 0.19622
348 1 0.77576 0.176857 0.25858
1638 1 0.875211 0.174007 0.134082
802 1 0.142584 0.0696927 0.140688
861 1 0.317765 0.238012 0.159068
1443 1 0.492791 0.10556 0.356914
93 1 0.51288 0.310426 0.292419
1935 1 0.997658 0.290799 0.257267
179 1 0.930359 0.187404 0.192343
1721 1 0.108722 0.114354 0.235207
1242 1 0.194189 0.176782 0.331598
502 1 0.73236 0.279826 0.105728
1709 1 0.13645 0.25476 0.200229
1841 1 0.173702 0.216871 0.153576
754 1 0.439494 0.282878 0.341995
1378 1 0.651103 0.243017 0.318392
41 1 0.628245 0.319222 0.300598
637 1 0.173942 0.445573 0.0510041
1263 1 0.343393 0.445 0.235287
1838 1 0.812089 0.334898 0.175743
987 1 0.935734 0.425912 0.21523
308 1 0.108302 0.40117 0.277898
103 1 0.241324 0.436643 0.258776
473 1 0.363316 0.522313 0.238679
1792 1 0.520597 0.345485 0.0327986
688 1 0.699567 0.516233 0.164106
1193 1 0.744018 0.444298 0.124613
387 1 0.94281 0.543267 0.139728
811 1 0.165022 0.363634 0.382894
71 1 0.449968 0.389143 0.151953
886 1 0.512485 0.358799 0.120709
1215 1 0.694687 0.343265 0.255334
1744 1 0.87468 0.560046 0.146044
1616 1 0.892543 0.402978 0.298764
690 1 0.0704166 0.552345 0.224451
422 1 0.302373 0.506661 0.269349
938 1 0.696062 0.379094 0.949658
1065 1 0.3218 0.616872 0.303468
523 1 0.371596 0.679612 0.167116
1123 1 0.44617 0.629329 0.214466
1409 1 0.487108 0.547118 0.203537
572 1 0.90017 0.638428 0.163382
1497 1 0.0640813 0.662836 0.175414
88 1 0.205639 0.562945 0.240512
2010 1 0.43152 0.509783 0.243506
47 1 0.493312 0.461361 0.253683
17 1 0.679015 0.643537 0.284457
371 1 0.689137 0.656772 0.202633
686 1 0.900467 0.446487 0.155074
784 1 0.00712367 0.735418 0.0966924
563 1 0.257716 0.77695 0.253985
199 1 0.290576 0.827634 0.188295
1325 1 0.748198 0.655428 0.257804
1167 1 0.998774 0.797148 0.143551
1546 1 0.22567 0.702091 0.298924
268 1 0.315193 0.908194 0.0459808
999 1 0.547085 0.611235 0.301993
1452 1 0.609165 0.628896 0.255178
902 1 0.786477 0.65845 0.162427
859 1 0.996595 0.827134 0.221143
369 1 0.18229 0.739776 0.253607
670 1 0.466747 0.0123785 0.0851913
702 1 0.470556 0.840461 0.153861
529 1 0.642361 0.52461 0.111518
1299 1 0.13489 0.768212 0.147528
1275 1 0.304119 0.719923 0.304015
1132 1 0.5381 0.788985 0.169643
1869 1 0.74495 0.880172 0.128767
1728 1 0.899509 0.84508 0.239364
763 1 0.340002 0.881593 0.190681
622 1 0.532966 0.766645 0.267448
1391 1 0.828249 0.822978 0.0796594
1577 1 0.0218324 0.925101 0.294198
362 1 0.227057 0.957111 0.128328
1506 1 0.293429 0.83438 0.337011
1748 1 0.48775 0.904821 0.0542669
158 1 0.118161 0.924376 0.275692
1956 1 0.350134 0.0756415 0.121718
1982 1 0.300847 0.0138157 0.102307
429 1 0.313213 0.00207632 0.26589
1706 1 0.422355 0.227215 0.284653
1704 1 0.758031 0.992904 0.350822
667 1 0.806998 0.915353 0.166415
1868 1 0.834566 0.982259 0.100258
647 1 0.996349 0.98315 0.0796415
1319 1 0.988974 0.114082 0.202608
1004 1 0.0939257 0.961718 0.339778
1515 1 0.35659 0.857343 0.374109
518 1 0.302768 0.196955 0.294366
1909 1 0.258469 0.996559 0.175436
1424 1 0.475525 0.165845 0.315109
986 1 0.717313 0.224134 0.316668
580 1 0.766734 0.129786 0.194414
932 1 0.890258 0.209039 0.27415
434 1 0.141936 0.129618 0.338657
1927 1 0.664884 0.156587 0.238537
263 1 0.851641 0.0784624 0.323751
1360 1 0.145028 0.0707088 0.281877
1214 1 0.499206 0.195189 0.256196
679 1 0.632954 0.186275 0.170406
320 1 0.708228 0.272654 0.263689
168 1 0.876746 0.266351 0.163452
127 1 0.045199 0.133457 0.278239
1682 1 0.211757 0.0105115 0.229922
77 1 0.334438 0.343547 0.334897
459 1 0.298521 0.136641 0.249501
1884 1 0.814881 0.453112 0.140405
1723 1 0.846309 0.408691 0.199621
1746 1 0.0756699 0.182038 0.154432
1135 1 0.745399 0.289704 0.189238
401 1 0.843428 0.184488 0.322206
306 1 0.985118 0.177984 0.236089
749 1 0.941836 0.495865 0.200265
108 1 0.135751 0.366722 0.159106
1036 1 0.308553 0.284684 0.413856
1461 1 0.204337 0.355283 0.177345
535 1 0.759338 0.259415 0.42169
574 1 0.667745 0.295373 0.376989
1049 1 0.989831 0.456617 0.280709
212 1 0.540765 0.220285 0.389216
832 1 0.641485 0.402439 0.215836
629 1 0.102348 0.472544 0.24021
931 1 0.422771 0.337597 0.219601
1076 1 0.610609 0.480962 0.209264
724 1 0.800988 0.541828 0.411711
874 1 0.798832 0.484378 0.057231
658 1 0.0375311 0.525291 0.359242
202 1 0.848211 0.480428 0.196144
63 1 0.306373 0.509715 0.198639
1639 1 0.568858 0.240503 0.322294
334 1 0.753055 0.479711 0.302153
648 1 0.692613 0.446195 0.229561
1131 1 0.503444 0.602567 0.360203
554 1 0.64462 0.457635 0.310376
450 1 0.0870811 0.422964 0.181068
631 1 0.232266 0.474119 0.452327
454 1 0.43328 0.341188 0.446878
1478 1 0.646865 0.711534 0.332994
404 1 0.808213 0.696951 0.289824
1817 1 0.764548 0.420878 0.0470792
2026 1 0.827559 0.613981 0.124094
1594 1 0.448541 0.485539 0.32311
65 1 0.510716 0.731761 0.354154
1893 1 0.364188 0.626702 0.218004
1712 1 0.775322 0.557278 0.0729527
833 1 0.135585 0.713241 0.298833
617 1 0.130251 0.622891 0.23515
1658 1 0.566535 0.678361 0.370635
1549 1 0.0558602 0.720009 0.305089
1673 1 0.118893 0.762875 0.234001
1837 1 0.598868 0.754354 0.239524
2042 1 0.657641 0.586984 0.222966
1453 1 0.991347 0.60225 0.297513
461 1 0.508429 0.719196 0.0919078
72 1 0.564567 0.679131 0.293364
1901 1 0.755993 0.748348 0.27774
1888 1 0.971718 0.706885 0.294407
653 1 0.704004 0.897062 0.213974
1501 1 0.139101 0.849416 0.407446
1905 1 0.432064 0.705187 0.199098
751 1 0.489514 0.706996 0.418596
507 1 0.55523 0.734964 0.433099
1054 1 0.707726 0.885142 0.307685
328 1 0.547616 0.835144 0.37683
696 1 0.0560326 0.785471 0.189299
1007 1 0.303039 0.949136 0.125292
1038 1 0.774843 0.974626 0.215507
480 1 0.800311 0.791926 0.214837
750 1 0.216633 0.848946 0.135776
471 1 0.3601 0.956632 0.356428
165 1 0.367207 0.799676 0.20608
1451 1 0.57773 0.843949 0.286418
1260 1 0.683816 0.949452 0.254246
111 1 0.867333 0.784411 0.311022
613 1 0.935798 0.819894 0.16013
1498 1 0.00168301 0.899435 0.229008
522 1 0.0962412 0.916418 0.194529
1651 1 0.337959 0.943746 0.230465
470 1 0.250856 0.996123 0.317891
1236 1 0.596105 0.989029 0.257741
1109 1 0.761806 0.857888 0.204886
1968 1 0.821503 0.896824 0.0976417
551 1 0.387192 0.990728 0.259173
856 1 0.714276 0.0748785 0.326441
759 1 0.922569 0.0678312 0.216254
862 1 0.814102 0.754061 0.36671
113 1 0.159281 0.981313 0.288035
1296 1 0.274093 0.0742473 0.281574
377 1 0.502495 0.0218691 0.375077
1574 1 0.495696 0.114191 0.490641
2005 1 0.741621 0.127121 0.383923
1814 1 0.718955 0.0606306 0.39589
1374 1 0.897668 0.986207 0.330405
1207 1 0.0355405 0.904416 0.379766
91 1 0.3058 0.908734 0.352162
1762 1 0.388434 0.177421 0.254106
513 1 0.626877 0.116724 0.379147
850 1 0.870697 0.933166 0.225091
1663 1 0.824056 0.0173171 0.305971
1481 1 0.959258 0.054139 0.433471
1670 1 0.0832246 0.277732 0.246124
475 1 0.256775 0.166933 0.36276
149 1 0.338114 0.270778 0.348572
1724 1 0.400684 0.0131183 0.560627
1264 1 0.523952 0.107008 0.282159
1711 1 0.839701 0.113636 0.383305
137 1 0.984689 0.203816 0.304107
1114 1 0.331862 0.120935 0.306367
723 1 0.478172 0.199379 0.44222
379 1 0.411058 0.157937 0.397918
1142 1 0.70404 0.163627 0.179133
248 1 0.455656 0.212826 0.370953
1442 1 0.304058 0.359621 0.237217
917 1 0.944794 0.318525 0.206658
96 1 0.150701 0.172434 0.22865
770 1 0.158326 0.324808 0.248469
878 1 0.295335 0.472287 0.382028
678 1 0.388285 0.292683 0.398581
2046 1 0.566211 0.454941 0.261052
1475 1 0.592947 0.257628 0.166627
952 1 0.147011 0.257001 0.27806
1836 1 0.140384 0.540639 0.201221
1751 1 0.499991 0.351776 0.348833
1392 1 0.794088 0.308381 0.324558
1228 1 0.284517 0.369722 0.403086
1510 1 0.625138 0.396743 0.384645
381 1 0.712032 0.323369 0.327403
1107 1 0.0880865 0.580315 0.360556
1138 1 0.254234 0.446294 0.32698
1587 1 0.400144 0.592521 0.268966
771 1 0.473804 0.287977 0.167041
68 1 0.797887 0.365608 0.263349
583 1 0.776959 0.462267 0.232265
1419 1 0.231647 0.516912 0.378151
1085 1 0.4951 0.354674 0.201947
4 1 0.711158 0.513408 0.46292
2018 1 0.782852 0.542242 0.289232
550 1 0.0241771 0.388138 0.321283
1781 1 0.0610958 0.546968 0.298245
1729 1 0.352753 0.575047 0.163678
217 1 0.527512 0.625659 0.419956
99 1 0.594747 0.514921 0.327993
903 1 0.0192009 0.452475 0.349111
27 1 0.0713988 0.46341 0.302539
1573 1 0.268393 0.566945 0.299244
152 1 0.701896 0.524886 0.234478
270 1 0.732723 0.752765 0.383745
1878 1 0.927714 0.582422 0.199707
1449 1 0.204597 0.600197 0.175462
1336 1 0.515705 0.498785 0.359147
58 1 0.908368 0.472978 0.280231
1620 1 0.327954 0.874613 0.275018
1791 1 0.438211 0.73818 0.471607
831 1 0.473532 0.818114 0.40283
1066 1 0.0838668 0.810335 0.375651
1307 1 0.341072 0.760604 0.356263
1340 1 0.546902 0.908039 0.39068
414 1 0.690784 0.817613 0.193498
1541 1 0.891037 0.664098 0.254092
949 1 0.0397136 0.898878 0.150931
746 1 0.90462 0.889732 0.171938
262 1 0.328899 0.855767 0.454269
614 1 0.400943 0.866494 0.218039
546 1 0.516124 0.861983 0.319652
1220 1 0.531088 0.999418 0.223471
314 1 0.96687 0.905617 0.11151
1653 1 0.218162 0.873467 0.240732
1732 1 0.450167 0.763597 0.250911
340 1 0.552646 0.703457 0.218104
1168 1 0.800779 0.911712 0.255229
1716 1 0.927176 0.91866 0.0578551
1390 1 0.18041 0.979744 0.363519
512 1 0.356895 0.841363 0.5354
1804 1 0.635272 0.896539 0.295912
188 1 0.188897 0.776417 0.336892
174 1 0.222574 0.976969 0.421469
630 1 0.475301 0.915002 0.344819
487 1 0.655116 0.95481 0.172829
1019 1 0.677613 0.997149 0.389723
486 1 0.907033 0.923576 0.282465
1860 1 0.0673991 0.80932 0.261081
541 1 0.439327 0.941251 0.492828
1787 1 0.610512 0.857264 0.36757
661 1 0.149808 0.0483975 0.378198
26 1 0.406913 0.813772 0.281522
1315 1 0.338533 0.040988 0.615956
701 1 0.382378 0.0718046 0.243848
20 1 0.578615 0.0778026 0.482305
114 1 0.935106 0.275176 0.301867
533 1 0.0845814 0.0225595 0.382317
835 1 0.36207 0.0504044 0.311372
1529 1 0.369247 0.198149 0.344505
992 1 0.37112 0.0831471 0.381167
312 1 0.612212 0.144302 0.452032
305 1 0.881431 0.0427652 0.383201
271 1 0.270547 0.224513 0.529611
438 1 0.553186 0.134048 0.527513
1780 1 0.532349 0.155455 0.414878
29 1 0.905045 0.104632 0.274313
1178 1 0.776054 0.0977806 0.31184
1128 1 0.0994885 0.104318 0.53134
586 1 0.956681 0.179669 0.460172
1819 1 0.256633 0.256718 0.343105
548 1 0.293071 0.108105 0.398842
1863 1 0.386198 0.404533 0.494263
1810 1 0.642709 0.180478 0.350494
1061 1 0.0606184 0.253524 0.179602
824 1 0.164353 0.372903 0.303063
1645 1 0.837179 0.254775 0.30397
193 1 0.824037 0.264275 0.112513
10 1 0.0834529 0.339889 0.209465
1295 1 0.227932 0.34938 0.359046
928 1 0.270395 0.306095 0.540672
695 1 0.504563 0.335986 0.442321
1530 1 0.59416 0.275414 0.391612
190 1 0.882589 0.250195 0.361624
971 1 0.0500433 0.337791 0.275868
1955 1 0.179808 0.239388 0.355578
608 1 0.402292 0.619886 0.335004
787 1 0.581295 0.388335 0.315562
827 1 0.884107 0.528438 0.330835
358 1 0.0760426 0.277808 0.419764
1798 1 0.180271 0.538868 0.481953
1874 1 0.303708 0.293995 0.271307
1916 1 0.752289 0.378232 0.182431
821 1 0.824116 0.479092 0.30447
680 1 0.879344 0.318017 0.29396
1997 1 0.0640905 0.416991 0.404838
1875 1 0.0954923 0.485821 0.38667
1631 1 0.380089 0.476019 0.288279
930 1 0.769505 0.483617 0.385725
251 1 0.0628923 0.49605 0.181431
1551 1 0.982078 0.536241 0.260519
973 1 0.443796 0.419098 0.431462
1382 1 0.786052 0.421158 0.32259
1993 1 0.0466494 0.641762 0.241236
1127 1 0.737429 0.595731 0.307537
296 1 0.728849 0.552459 0.529536
498 1 0.665369 0.563498 0.29891
1491 1 0.821041 0.556894 0.193407
826 1 0.967578 0.630651 0.232253
765 1 0.207805 0.828506 0.390014
356 1 0.140346 0.531891 0.274043
1293 1 0.436221 0.530876 0.461261
778 1 0.519882 0.567825 0.462849
880 1 0.610348 0.638096 0.32754
1352 1 0.166814 0.601347 0.520017
1059 1 0.230394 0.633521 0.285277
725 1 0.669023 0.659529 0.480375
712 1 0.87025 0.606777 0.416671
192 1 0.186055 0.800311 0.46091
90 1 0.240015 0.757867 0.380763
142 1 0.613331 0.788054 0.393144
1008 1 0.75356 0.712999 0.19771
495 1 0.964232 0.515398 0.333569
1948 1 0.922887 0.735734 0.230023
1326 1 0.210052 0.75108 0.526674
395 1 0.506331 0.749086 0.50459
1310 1 0.510056 0.87866 0.447139
1250 1 0.685643 0.720788 0.460167
805 1 0.606705 0.776389 0.317431
692 1 0.849548 0.974572 0.382174
140 1 0.0473934 0.966508 0.172562
845 1 0.645415 0.833321 0.256225
665 1 0.804318 0.796646 0.143335
1521 1 0.37559 0.905169 0.428629
1063 1 0.409587 0.798692 0.372802
94 1 0.756282 0.928953 0.407942
1756 1 0.994125 0.748835 0.20681
1055 1 0.00794968 0.772195 0.276647
213 1 0.271743 0.821568 0.485506
2 1 0.302263 0.65994 0.361975
367 1 0.402597 0.738451 0.577377
1450 1 0.470345 0.873531 0.265447
2006 1 0.592615 0.921318 0.466293
1480 1 0.113234 0.780533 0.312082
1224 1 0.337924 0.79243 0.485254
1018 1 0.883073 1.00011 0.261051
1490 1 0.95873 0.932501 0.341548
1292 1 0.180591 0.892772 0.335345
133 1 0.380607 0.915484 0.527277
1803 1 0.487344 0.941547 0.420493
352 1 0.436857 0.878585 0.411388
1686 1 0.760987 0.0233319 0.141021
1519 1 0.129471 0.933156 0.486659
2017 1 0.237666 0.937406 0.368349
1717 1 0.180757 0.882514 0.512088
1951 1 0.565324 0.0652915 0.327401
1950 1 0.699442 0.951323 0.338484
1749 1 0.687052 0.96222 0.467355
343 1 0.991534 0.0529691 0.272055
119 1 0.267723 0.0352642 0.460953
1434 1 0.281116 0.0356971 0.541665
1159 1 0.433925 0.0500106 0.367463
792 1 0.604662 0.0313384 0.377834
1080 1 0.226389 0.0928941 0.337916
408 1 0.0498083 0.972536 0.456645
344 1 0.456378 0.0577221 0.288565
51 1 0.633701 0.217916 0.456661
1943 1 0.652754 0.0535325 0.441402
1554 1 0.990401 0.929179 0.443998
975 1 0.0910975 0.0923441 0.424453
1761 1 0.142477 0.140098 0.15034
699 1 0.357625 0.228836 0.409821
172 1 0.43508 0.262692 0.478259
162 1 0.701671 0.163863 0.530087
477 1 0.95764 0.991827 0.380396
185 1 0.276599 0.217411 0.413258
1627 1 0.31407 0.228886 0.470354
691 1 0.584831 0.0727106 0.563822
958 1 0.106132 0.184353 0.28352
1404 1 0.267169 0.438769 0.507843
1203 1 0.562428 0.362139 0.238828
1373 1 0.89931 0.239638 0.432435
1630 1 0.919998 0.305453 0.392835
654 1 0.165458 0.5464 0.395286
1071 1 0.217016 0.50006 0.303904
881 1 0.245088 0.382098 0.461732
1457 1 0.322292 0.423734 0.452566
1881 1 0.623466 0.321425 0.430782
1708 1 0.876512 0.354713 0.353926
1921 1 0.941193 0.414694 0.359736
1870 1 0.000342398 0.340127 0.374569
1072 1 0.429333 0.553802 0.34538
687 1 0.506691 0.398903 0.295837
167 1 0.665696 0.380655 0.323787
1596 1 0.670112 0.234236 0.533565
782 1 0.035513 0.281825 0.317995
446 1 0.252736 0.348765 0.283809
1051 1 0.936209 0.318702 0.500622
295 1 0.387633 0.469412 0.361973
146 1 0.349397 0.406131 0.38882
794 1 0.63099 0.575768 0.359529
957 1 0.631381 0.442731 0.481886
455 1 0.863426 0.530982 0.446202
247 1 0.830211 0.567236 0.334069
1153 1 0.0563833 0.715993 0.226281
1288 1 0.25442 0.574611 0.430958
196 1 0.676304 0.488226 0.386383
756 1 0.639698 0.777859 0.546707
1320 1 0.804173 0.552635 0.484529
837 1 0.917486 0.531623 0.503027
1609 1 0.475486 0.602177 0.292646
1039 1 0.51282 0.526786 0.292789
2047 1 0.720154 0.667341 0.337546
858 1 0.0742371 0.733819 0.374374
1664 1 0.448978 0.701193 0.533937
444 1 0.698662 0.762429 0.584602
1833 1 0.692404 0.61784 0.383628
599 1 0.936297 0.731774 0.161823
266 1 0.460748 0.671946 0.363578
317 1 0.444086 0.720889 0.312811
1235 1 0.557357 0.551453 0.391128
1824 1 0.620812 0.761581 0.465593
1171 1 0.850292 0.637438 0.332073
1126 1 0.953241 0.804877 0.40537
1484 1 0.103784 0.711895 0.568935
1938 1 0.313708 0.587147 0.382984
1588 1 0.379325 0.622004 0.59041
302 1 0.706046 0.550229 0.369426
1598 1 0.969174 0.851432 0.292275
1628 1 0.0421321 0.708331 0.496185
1067 1 0.373852 0.771942 0.426994
1332 1 0.484484 0.57659 0.597501
1273 1 0.480144 0.799387 0.324812
893 1 0.599518 0.85211 0.439533
585 1 0.82478 0.826381 0.363648
347 1 0.387164 0.916744 0.286642
275 1 0.47865 0.728423 0.597366
1580 1 0.701764 0.809623 0.41754
808 1 0.148261 0.923436 0.396458
1266 1 0.137115 0.989535 0.424306
1151 1 0.542565 0.906218 0.261182
1218 1 0.996484 0.803835 0.348716
1887 1 0.200586 0.910608 0.445736
752 1 0.28463 0.746606 0.472978
1902 1 0.756571 0.957106 0.284724
1139 1 0.0311136 0.834975 0.423192
1847 1 0.0230198 0.0649418 0.481989
1445 1 0.261108 0.871032 0.414181
1718 1 0.618825 0.974644 0.423858
241 1 0.9278 0.848107 0.358083
95 1 0.970964 0.890851 0.527097
1517 1 0.037369 0.853404 0.574015
1534 1 0.768202 0.0204158 0.550371
1880 1 0.807603 0.82634 0.29446
1485 1 0.854345 0.874806 0.317367
1818 1 0.0963971 0.968625 0.551851
261 1 0.32831 0.0901755 0.476481
1713 1 0.639575 0.0910573 0.522475
1201 1 0.727294 0.121974 0.2554
1540 1 0.00210587 0.118009 0.337963
772 1 0.243862 0.0355582 0.379019
115 1 0.501348 0.163586 0.581789
372 1 0.705721 0.1512 0.325894
1903 1 0.0463813 0.0621221 0.329452
1405 1 0.927035 0.103498 0.394051
1211 1 0.015118 0.212511 0.575328
663 1 0.506676 0.0405733 0.505403