LAMMPS (15 Sep 2022)
OMP_NUM_THREADS environment is not set. Defaulting to 1 thread. (src/comm.cpp:98)
  using 1 OpenMP thread(s) per MPI task
# 3d WCA system, random initial configuration

#variable density equal 0.6
variable initial_temperature equal 3.0
variable final_temperature equal 0.1
variable dt equal 0.005
variable tau equal 100*${dt}
variable tau equal 100*0.005
variable thermo_time equal 50000*${dt}
variable thermo_time equal 50000*0.005
variable equil_steps equal 50000
variable run_steps equal 100000

units           lj
atom_style      atomic
dimension       3                # 修改1：将维度改为3

lattice         fcc ${density}   # 修改2：将晶格类型改为 fcc
lattice         fcc 0.8   
Lattice spacing in x,y,z = 1.7099759 1.7099759 1.7099759
region          box block 0 8 0 8 0 8    # 修改3：调整区域大小为 8x8x8

# number of atom types
create_box      1 box
Created orthogonal box = (0 0 0) to (13.679808 13.679808 13.679808)
  1 by 1 by 1 MPI processor grid
create_atoms    1 box
Created 2048 atoms
  using lattice units in orthogonal box = (0 0 0) to (13.679808 13.679808 13.679808)
  create_atoms CPU = 0.000 seconds
mass 1 1.0

velocity all create ${initial_temperature} 12345
velocity all create 3 12345

pair_style      lj/cut 1.0
#type_1 type_2 epsilon sigma cutoff
pair_coeff      1 1 10.0 0.89089871814 1.0
pair_modify shift yes

timestep ${dt}
timestep 0.005
thermo ${thermo_time}
thermo 250

fix 1 all nvt temp ${initial_temperature} ${initial_temperature} ${tau}
fix 1 all nvt temp 3 ${initial_temperature} ${tau}
fix 1 all nvt temp 3 3 ${tau}
fix 1 all nvt temp 3 3 0.5
run ${equil_steps}
run 50000
Generated 0 of 0 mixed pair_coeff terms from geometric mixing rule
Neighbor list info ...
  update: every = 1 steps, delay = 0 steps, check = yes
  max neighbors/atom: 2000, page size: 100000
  master list distance cutoff = 1.3
  ghost atom cutoff = 1.3
  binsize = 0.65, bins = 22 22 22
  1 neighbor lists, perpetual/occasional/extra = 1 0 0
  (1) pair lj/cut, perpetual
      attributes: half, newton on
      pair build: half/bin/atomonly/newton
      stencil: half/bin/3d
      bin: standard
Per MPI rank memory allocation (min/avg/max) = 3.184 | 3.184 | 3.184 Mbytes
   Step          Temp          E_pair         E_mol          TotEng         Press     
         0   3              0              0              4.4978027      2.3988281    
       250   2.95875        0.90040129     0              5.3363593      11.656989    
       500   3.0039217      1.0022205      0              5.505903       12.486283    
       750   2.948341       0.99645876     0              5.4168108      12.365523    
      1000   3.007414       0.94911628     0              5.4580347      12.089645    
      1250   2.9781725      1.0213167      0              5.4863941      12.5215      
      1500   2.9941452      0.93383738     0              5.4228621      12.036985    
      1750   2.9952427      0.98739217     0              5.4780624      12.324665    
      2000   2.9852688      0.96258269     0              5.4382995      12.267783    
      2250   2.9960317      0.9842509      0              5.4761041      12.413467    
      2500   3.024416       0.90214398     0              5.4365528      11.831964    
      2750   2.9849712      0.99516391     0              5.4704344      12.420855    
      3000   3.0735548      0.98540818     0              5.5934892      12.444306    
      3250   2.9851778      0.92208285     0              5.3976632      11.881022    
      3500   3.0398283      1.0067555      0              5.5642715      12.714441    
      3750   3.0001906      0.92677882     0              5.4248673      12.09666     
      4000   3.0089728      0.93273118     0              5.4439865      11.952063    
      4250   2.8825196      0.86142847     0              5.1830966      11.434572    
      4500   3.0181966      0.98855939     0              5.5136437      12.4029      
      4750   2.9411376      0.93593953     0              5.3454918      12.005309    
      5000   3.0269212      1.0094566      0              5.5476214      12.531036    
      5250   2.9949539      0.92789767     0              5.4181349      11.985413    
      5500   3.009491       0.94389331     0              5.4559257      12.075226    
      5750   3.0788595      0.95297811     0              5.5690123      12.308355    
      6000   2.9555476      0.92689072     0              5.3580474      11.997025    
      6250   3.0347029      1.0202143      0              5.5700459      12.634138    
      6500   2.8857294      0.9754914      0              5.3019719      12.272028    
      6750   3.0565924      0.94716025     0              5.5298102      12.257013    
      7000   2.8745497      0.97190527     0              5.2816244      12.188793    
      7250   3.0021771      0.98368306     0              5.4847499      12.443441    
      7500   2.975351       0.88377367     0              5.3446209      11.659685    
      7750   3.0476341      0.99894599     0              5.568165       12.421238    
      8000   2.976716       0.90650135     0              5.3693951      11.933752    
      8250   3.0047806      0.96355162     0              5.4685218      12.255591    
      8500   3.008366       0.97189587     0              5.4822415      12.411472    
      8750   3.0042763      0.945024       0              5.4492381      12.190088    
      9000   3.0239271      0.9008675      0              5.4345433      11.814426    
      9250   2.9990216      0.91862612     0              5.4149619      11.911014    
      9500   3.0068896      0.98171494     0              5.489847       12.37335     
      9750   2.9337691      0.98450069     0              5.3830056      12.477731    
     10000   3.0085462      0.99593992     0              5.5065557      12.53048     
     10250   2.9860938      0.9027877      0              5.3797414      11.850953    
     10500   3.0739526      0.97743542     0              5.5861129      12.500986    
     10750   2.9485114      0.9912356      0              5.4118432      12.373045    
     11000   3.0392851      0.93695978     0              5.4936613      12.057206    
     11250   2.957362       0.90239526     0              5.3362722      11.740276    
     11500   3.0115721      0.96979794     0              5.4849504      12.359615    
     11750   2.9868817      0.91785652     0              5.3959914      11.99826     
     12000   3.0149932      0.96546141     0              5.4857429      12.273955    
     12250   3.0059644      0.94357518     0              5.4503202      12.185639    
     12500   2.8871067      0.94048606     0              5.2690315      11.981633    
     12750   3.0027554      1.0087497      0              5.5106835      12.558552    
     13000   2.9266531      0.94377323     0              5.3316093      12.156077    
     13250   3.0714135      0.91414128     0              5.519012       11.939181    
     13500   2.9412458      0.94477217     0              5.3544867      12.046658    
     13750   3.0651561      1.0377569      0              5.633246       12.882938    
     14000   2.9573506      0.98690165     0              5.4207616      12.429119    
     14250   3.0989353      0.99136766     0              5.6375008      12.415398    
     14500   2.977916       0.91789792     0              5.3825909      11.904806    
     14750   3.043687       0.97237853     0              5.5356797      12.450035    
     15000   2.97065        0.93111304     0              5.3849123      11.993333    
     15250   3.0021874      1.034187       0              5.5352691      12.727976    
     15500   2.9169596      0.93995167     0              5.3132546      11.933327    
     15750   3.0955791      0.90910792     0              5.5502094      11.812962    
     16000   2.9834281      0.86977855     0              5.3427356      11.649426    
     16250   3.0942252      0.93027655     0              5.569348       11.955427    
     16500   2.9766049      0.93580686     0              5.3985341      12.107578    
     16750   3.0381326      0.96123071     0              5.5162044      12.358372    
     17000   3.0072165      0.93383391     0              5.4424561      12.050052    
     17250   3.0029043      0.91391463     0              5.4160717      11.940498    
     17500   2.9820489      0.97055078     0              5.4414401      12.358261    
     17750   3.0187842      0.93489151     0              5.4608568      12.109991    
     18000   2.9834545      0.92824587     0              5.4012425      11.906303    
     18250   3.0075899      1.0418936      0              5.5510757      12.639978    
     18500   2.9611628      0.94946537     0              5.3890408      12.08105     
     18750   3.0308953      0.93419624     0              5.4783193      12.070134    
     19000   2.8565297      0.8795995      0              5.1623019      11.598649    
     19250   3.0352236      0.94904251     0              5.4996549      12.266863    
     19500   2.9184287      0.96096421     0              5.3364697      12.224493    
     19750   3.0598069      0.98755819     0              5.5750275      12.735948    
     20000   2.9583907      0.93387671     0              5.3692959      11.902805    
     20250   3.0766408      1.0315753      0              5.644283       12.830521    
     20500   3.0153072      0.92636235     0              5.4471147      12.013412    
     20750   3.0180096      0.87767022     0              5.4024741      11.519301    
     21000   3.0514232      0.98958765     0              5.5644875      12.515552    
     21250   2.9450674      0.9235504      0              5.3389944      11.933869    
     21500   3.0213614      0.94337182     0              5.4732011      12.203941    
     21750   2.9339939      1.0277502      0              5.426592       12.355655    
     22000   3.0836812      0.91421258     0              5.5374758      12.082895    
     22250   2.9098842      0.97497493     0              5.33767        12.295319    
     22500   3.0243242      0.98770905     0              5.5219803      12.48788     
     22750   2.9738091      0.94803099     0              5.4065665      12.315856    
     23000   3.0738752      0.90927684     0              5.5178383      11.884733    
     23250   2.9839455      0.94558327     0              5.419316       12.168782    
     23500   3.0899658      0.9740738      0              5.6067593      12.346382    
     23750   2.9154757      0.98726804     0              5.3583462      12.418178    
     24000   3.0061168      1.0040492      0              5.5110227      12.532104    
     24250   2.9994787      0.94784594     0              5.4448671      12.106695    
     24500   3.0154286      0.96010535     0              5.4810396      12.18403     
     24750   2.9202023      1.0207899      0              5.3989545      12.693432    
     25000   3.056797       0.99934048     0              5.5822971      12.535845    
     25250   2.9776964      0.91635217     0              5.3807159      11.885845    
     25500   3.0412398      0.9234522      0              5.4830844      11.983012    
     25750   2.8467584      0.9056572      0              5.1737097      11.680342    
     26000   2.9998264      1.0022968      0              5.4998393      12.446671    
     26250   2.9654047      0.90432191     0              5.350257       11.949494    
     26500   3.0932823      0.92334171     0              5.5609996      12.117448    
     26750   2.9576848      0.9365091      0              5.37087        12.11534     
     27000   3.0969876      1.0235479      0              5.666761       12.905981    
     27250   2.9929666      0.9034894      0              5.3907472      11.677526    
     27500   3.0817954      0.99343998     0              5.6138759      12.651351    
     27750   2.9521158      0.91966163     0              5.3456731      11.925975    
     28000   3.0423689      0.96971046     0              5.5310355      12.360049    
     28250   2.9080203      0.94283882     0              5.3027393      12.016239    
     28500   3.0411989      0.93568225     0              5.4952531      12.17219     
     28750   2.8865232      0.92055638     0              5.2482271      11.872158    
     29000   2.9805517      1.0254844      0              5.494129       12.690943    
     29250   2.9425326      0.94322203     0              5.3548657      12.056925    
     29500   3.0881704      0.9481874      0              5.5781812      12.118515    
     29750   3.0119198      0.8789278      0              5.3946016      11.696264    
     30000   3.0719111      0.91112455     0              5.5167413      12.053075    
     30250   2.9691171      0.90865183     0              5.3601528      11.964884    
     30500   3.0714207      0.97412578     0              5.5790073      12.326987    
     30750   3.0465885      0.86387631     0              5.4315277      11.581987    
     31000   3.009121       0.96712659     0              5.4786042      12.344799    
     31250   3.0340187      0.94214575     0              5.4909517      12.236806    
     31500   3.0525396      0.87939011     0              5.4559638      11.681372    
     31750   3.0100388      0.96214598     0              5.4749996      12.297492    
     32000   2.9768437      0.94959486     0              5.4126802      12.066088    
     32250   3.0178019      0.99954909     0              5.5240416      12.447275    
     32500   2.9837383      0.95060213     0              5.4240242      12.309065    
     32750   2.9530622      0.93530086     0              5.3627313      12.018438    
     33000   3.0089789      0.98170823     0              5.4929727      12.40282     
     33250   2.9228878      0.9953079      0              5.3774988      12.442578    
     33500   3.0894557      0.92948904     0              5.5614099      12.055454    
     33750   2.9611736      0.90885382     0              5.3484453      11.881592    
     34000   3.0134184      0.94655075     0              5.4644713      12.144836    
     34250   2.9593035      0.95893545     0              5.3957232      12.327135    
     34500   2.979061       0.96931693     0              5.4357265      12.270803    
     34750   3.0113137      0.92343402     0              5.438199       11.897749    
     35000   2.995803       0.90808428     0              5.3995945      11.891063    
     35250   3.0031852      0.96171786     0              5.4642961      12.347741    
     35500   3.0383485      0.87665175     0              5.4319491      11.475934    
     35750   3.0050579      0.9170352      0              5.4224212      11.853896    
     36000   2.964807       0.99133419     0              5.4363732      12.452572    
     36250   2.996641       0.96298907     0              5.4557558      12.328497    
     36500   2.9702692      0.9023553      0              5.3555836      11.814499    
     36750   3.0115138      0.95820849     0              5.4732735      12.343906    
     37000   2.9749712      0.99684979     0              5.4571276      12.548935    
     37250   3.1319691      1.0454636      0              5.7411234      12.977063    
     37500   2.8888265      1.0486639      0              5.3797879      12.81814     
     37750   3.0431065      1.0019288      0              5.5643597      12.525555    
     38000   2.9494888      0.89707985     0              5.3191528      11.795721    
     38250   3.0512877      0.92156904     0              5.4962657      11.997648    
     38500   2.9078369      0.85615448     0              5.21578        11.471166    
     38750   3.0043349      0.97906292     0              5.4833648      12.241719    
     39000   2.9836195      0.90154602     0              5.3747899      11.744804    
     39250   3.0486402      1.0023371      0              5.5730645      12.670923    
     39500   2.9980168      0.90451691     0              5.3993462      11.876878    
     39750   3.0228138      0.9542692      0              5.486276       12.292728    
     40000   2.8467619      0.91241633     0              5.1804742      11.875723    
     40250   3.0389642      0.97103502     0              5.5272555      12.309935    
     40500   2.9163512      0.97040843     0              5.3427993      12.377293    
     40750   3.0840928      0.93011378     0              5.5539942      12.19665     
     41000   3.0161502      0.87577615     0              5.3977923      11.619709    
     41250   3.1576363      0.97736463     0              5.7115063      12.495756    
     41500   2.9647049      0.96527357     0              5.4101596      12.359814    
     41750   3.0511754      0.9698782      0              5.5444066      12.430539    
     42000   2.9327586      0.9346149      0              5.3316048      12.104396    
     42250   3.0345081      0.98102997     0              5.5305696      12.48863     
     42500   2.9903852      0.89669313     0              5.3800806      11.893505    
     42750   3.0625311      0.98743887     0              5.5789925      12.59429     
     43000   3.0082115      0.92044156     0              5.4305555      11.898807    
     43250   3.0707151      0.94234944     0              5.546173       12.223876    
     43500   2.9595135      0.90900794     0              5.3461106      11.779178    
     43750   3.0297848      1.0381575      0              5.5806157      13.028198    
     44000   2.9866455      0.95549626     0              5.433277       12.271559    
     44250   2.9760787      1.0140227      0              5.475961       12.548526    
     44500   2.9477055      0.98142754     0              5.4008269      12.417159    
     44750   3.0141386      1.0341565      0              5.5531568      12.724417    
     45000   2.9603861      0.99288599     0              5.4312969      12.349662    
     45250   3.0503166      0.97428735     0              5.5475282      12.397455    
     45500   2.9543911      0.97006116     0              5.3994839      12.259503    
     45750   3.0393117      0.96158022     0              5.5183217      12.28089     
     46000   2.9218151      0.92489713     0              5.3054797      11.970018    
     46250   3.0465512      0.96532839     0              5.5329239      12.350853    
     46500   2.9286809      0.99200612     0              5.3828825      12.230335    
     46750   3.0646111      1.0262762      0              5.6209483      12.636985    
     47000   2.9593975      0.97069197     0              5.4076206      12.454286    
     47250   3.1108823      1.0230274      0              5.6870724      12.918646    
     47500   2.9919648      0.899753       0              5.3855087      11.833192    
     47750   3.0665382      0.98373893     0              5.5813002      12.498171    
     48000   2.9539497      0.92381936     0              5.3525804      11.908319    
     48250   3.0642237      0.89244702     0              5.4865383      11.832       
     48500   2.8602989      0.91009429     0              5.1984478      11.831794    
     48750   3.0264507      0.98354611     0              5.5210055      12.56599     
     49000   2.9260255      0.94278383     0              5.329679       12.058749    
     49250   3.0610532      1.0109217      0              5.6002595      12.610743    
     49500   2.9175233      0.99429301     0              5.3684411      12.567482    
     49750   3.1403905      0.93714149     0              5.6454271      12.142809    
     50000   2.998976       0.93588699     0              5.4321545      12.048902    
Loop time of 15.2401 on 1 procs for 50000 steps with 2048 atoms

Performance: 1417309.311 tau/day, 3280.809 timesteps/s, 6.719 Matom-step/s
99.6% CPU use with 1 MPI tasks x 1 OpenMP threads

MPI task timing breakdown:
Section |  min time  |  avg time  |  max time  |%varavg| %total
---------------------------------------------------------------
Pair    | 3.5983     | 3.5983     | 3.5983     |   0.0 | 23.61
Neigh   | 9.2211     | 9.2211     | 9.2211     |   0.0 | 60.51
Comm    | 0.75503    | 0.75503    | 0.75503    |   0.0 |  4.95
Output  | 0.0080963  | 0.0080963  | 0.0080963  |   0.0 |  0.05
Modify  | 1.2613     | 1.2613     | 1.2613     |   0.0 |  8.28
Other   |            | 0.3962     |            |       |  2.60

Nlocal:           2048 ave        2048 max        2048 min
Histogram: 1 0 0 0 0 0 0 0 0 0
Nghost:           1402 ave        1402 max        1402 min
Histogram: 1 0 0 0 0 0 0 0 0 0
Neighs:           7477 ave        7477 max        7477 min
Histogram: 1 0 0 0 0 0 0 0 0 0

Total # of neighbors = 7477
Ave neighs/atom = 3.6508789
Neighbor list builds = 10977
Dangerous builds = 0

unfix 1
dump           1 all atom ${run_steps} 3dWCA_T${final_temperature}_d${density}_N${run_steps}.lammpstrj   # 修改4：将文件名前缀改为3d
dump           1 all atom 100000 3dWCA_T${final_temperature}_d${density}_N${run_steps}.lammpstrj   
dump           1 all atom 100000 3dWCA_T0.1_d${density}_N${run_steps}.lammpstrj   
dump           1 all atom 100000 3dWCA_T0.1_d0.8_N${run_steps}.lammpstrj   
dump           1 all atom 100000 3dWCA_T0.1_d0.8_N100000.lammpstrj   
dump           2 all dcd ${thermo_time} 3dWCA_T${final_temperature}_d${density}_N${run_steps}.dcd        # 修改4：将文件名前缀改为3d
dump           2 all dcd 250 3dWCA_T${final_temperature}_d${density}_N${run_steps}.dcd        
dump           2 all dcd 250 3dWCA_T0.1_d${density}_N${run_steps}.dcd        
dump           2 all dcd 250 3dWCA_T0.1_d0.8_N${run_steps}.dcd        
dump           2 all dcd 250 3dWCA_T0.1_d0.8_N100000.dcd        
fix 1 all nvt temp ${initial_temperature} ${final_temperature} ${tau}
fix 1 all nvt temp 3 ${final_temperature} ${tau}
fix 1 all nvt temp 3 0.1 ${tau}
fix 1 all nvt temp 3 0.1 0.5

run ${run_steps}
run 100000
Generated 0 of 0 mixed pair_coeff terms from geometric mixing rule
Per MPI rank memory allocation (min/avg/max) = 3.326 | 3.326 | 3.326 Mbytes
   Step          Temp          E_pair         E_mol          TotEng         Press     
     50000   2.998976       0.93588699     0              5.4321545      12.048902    
     50250   3.0500667      0.99316343     0              5.5660296      12.587573    
     50500   2.9283583      0.91841799     0              5.3088106      11.750676    
     50750   3.0651553      0.9642493      0              5.5597373      12.461462    
     51000   2.9513052      0.90213973     0              5.3269359      11.71405     
     51250   2.9755989      0.92987222     0              5.3910912      12.031809    
     51500   3.080579       0.83181217     0              5.4504245      11.405992    
     51750   2.9133804      0.93101973     0              5.2989565      12.01432     
     52000   2.9842325      0.9746282      0              5.4487912      12.313675    
     52250   2.875791       0.88029346     0              5.1918737      11.515354    
     52500   3.0044862      0.89091864     0              5.3954474      11.67614     
     52750   2.8374832      0.89187625     0              5.1460228      11.549492    
     53000   2.9275519      0.93913504     0              5.3283187      11.894096    
     53250   2.8988338      0.90542513     0              5.2515527      11.846319    
     53500   2.9585571      0.88213389     0              5.3178027      11.6232      
     53750   2.8568702      0.94190919     0              5.2251221      11.976478    
     54000   2.9946492      0.87306976     0              5.3628503      11.59437     
     54250   2.8390528      0.88016942     0              5.1366692      11.480067    
     54500   2.8979983      0.92653329     0              5.2714082      11.880764    
     54750   2.737468       0.77528405     0              4.8794811      10.705889    
     55000   2.8851077      0.92636121     0              5.2519096      12.02474     
     55250   2.8207791      0.82471164     0              5.0538143      10.977497    
     55500   2.9234205      0.91667456     0              5.2996641      11.908525    
     55750   2.8137988      0.87547795     0              5.0941153      11.505431    
     56000   2.8904315      0.9696983      0              5.3032285      12.270417    
     56250   2.7822043      0.88666555     0              5.0579343      11.563044    
     56500   2.8575194      0.92564699     0              5.2098332      12.005878    
     56750   2.7469169      0.88477814     0              5.0031416      11.507304    
     57000   2.8461424      0.84040347     0              5.1075324      11.331253    
     57250   2.8127275      0.85395589     0              5.070987       11.385083    
     57500   2.7661764      0.81876569     0              4.9660043      10.992018    
     57750   2.8681985      0.80815405     0              5.108351       10.967072    
     58000   2.734389       0.88982272     0              4.9894036      11.405067    
     58250   2.7532416      0.87084965     0              4.9986956      11.44265     
     58500   2.7714329      0.81324699     0              4.9683665      10.965839    
     58750   2.7349829      0.9027314      0              5.0032027      11.66966     
     59000   2.7546998      0.82590983     0              4.955942       11.104296    
     59250   2.7739793      0.83352885     0              4.9924661      11.192326    
     59500   2.7766908      0.81464494     0              4.9776474      11.00511     
     59750   2.694165       0.88068654     0              4.9199608      11.486262    
     60000   2.6678599      0.86944892     0              4.8692847      11.409631    
     60250   2.7230703      0.84903452     0              4.9316456      11.240498    
     60500   2.6275897      0.88920518     0              4.8286652      11.415456    
     60750   2.6002372      0.86365693     0              4.7621082      11.233578    
     61000   2.7141973      0.8446118      0              4.9139198      11.202601    
     61250   2.6584641      0.78607918     0              4.7718281      10.553104    
     61500   2.7015778      0.85045985     0              4.9008478      11.131516    
     61750   2.6892128      0.77246179     0              4.8043113      10.576863    
     62000   2.686943       0.91127193     0              4.9397184      11.656622    
     62250   2.6261843      0.79560912     0              4.7329621      10.644846    
     62500   2.7436576      0.85287411     0              4.966351       11.253159    
     62750   2.572415       0.84407761     0              4.700816       11.197311    
     63000   2.6808795      0.83125885     0              4.8506145      10.943076    
     63250   2.5758153      0.76113365     0              4.62297        10.427279    
     63500   2.6442074      0.81380455     0              4.778179       10.930016    
     63750   2.5941998      0.80402698     0              4.6934266      10.79012     
     64000   2.570063       0.84704316     0              4.7002553      11.188003    
     64250   2.5923816      0.77934835     0              4.6660221      10.548291    
     64500   2.5865607      0.82105084     0              4.6989974      10.774711    
     64750   2.5538174      0.83842844     0              4.6672841      11.007634    
     65000   2.5393778      0.81261331     0              4.6198201      10.768157    
     65250   2.547566       0.81303772     0              4.6325208      10.812733    
     65500   2.51305        0.83017825     0              4.5979126      10.885656    
     65750   2.5870467      0.72815247     0              4.6068278      10.208185    
     66000   2.4707451      0.792646       0              4.4969541      10.59651     
     66250   2.5408923      0.82566707     0              4.6351445      10.855201    
     66500   2.4931051      0.77430863     0              4.5121403      10.32889     
     66750   2.5941827      0.81593463     0              4.7053087      10.760019    
     67000   2.4767516      0.77889023     0              4.4922035      10.332168    
     67250   2.5758566      0.82631431     0              4.6882126      10.759276    
     67500   2.4791799      0.72742374     0              4.4443778      10.089254    
     67750   2.5105295      0.8051512      0              4.5691067      10.769969    
     68000   2.4805985      0.71993179     0              4.4390127      9.9530093    
     68250   2.5181909      0.71071647     0              4.4861584      9.9070979    
     68500   2.332255       0.7037243      0              4.2003987      9.8902145    
     68750   2.485213       0.75484839     0              4.4808476      10.20547     
     69000   2.4071445      0.72356301     0              4.3325167      10.071511    
     69250   2.4921552      0.78283154     0              4.519239       10.44359     
     69500   2.3954732      0.76442843     0              4.3558837      10.283507    
     69750   2.4870388      0.8188445      0              4.5475811      10.757455    
     70000   2.4467066      0.68825024     0              4.3565181      9.656471     
     70250   2.4609343      0.72142794     0              4.411027       9.9554333    
     70500   2.3405594      0.72969297     0              4.2388178      9.9714168    
     70750   2.4635375      0.71893578     0              4.4124377      9.8677215    
     71000   2.3926827      0.69745007     0              4.2847217      9.7229838    
     71250   2.4216094      0.80065938     0              4.4312998      10.589831    
     71500   2.3422117      0.71373798     0              4.22534        9.810445     
     71750   2.4003368      0.76068779     0              4.3594349      10.135791    
     72000   2.282503       0.74815665     0              4.1702394      10.150506    
     72250   2.401098       0.7375636      0              4.3374519      10.091532    
     72500   2.2774969      0.72015729     0              4.1347346      9.9520117    
     72750   2.3833222      0.69929433     0              4.2725321      9.72279      
     73000   2.3075423      0.64664886     0              4.1062722      9.2559464    
     73250   2.3577252      0.74249431     0              4.2773552      10.085402    
     73500   2.3068761      0.70469271     0              4.1633172      9.7752085    
     73750   2.4022194      0.75823846     0              4.3598081      10.328086    
     74000   2.2922502      0.69663541     0              4.1333319      9.6825997    
     74250   2.3051183      0.75042736     0              4.2064165      10.073754    
     74500   2.2275857      0.71082219     0              4.0505692      9.7600986    
     74750   2.315217       0.71236755     0              4.1834974      9.8242019    
     75000   2.2639909      0.69545234     0              4.0897805      9.5050804    
     75250   2.3200531      0.71959643     0              4.1979769      9.9808193    
     75500   2.2496735      0.67700004     0              4.0498625      9.4096484    
     75750   2.3391828      0.72560014     0              4.2326611      10.017957    
     76000   2.2104757      0.68486175     0              3.9989564      9.4882417    
     76250   2.3018157      0.69564442     0              4.146682       9.5872063    
     76500   2.1839303      0.67354906     0              3.947845       9.4055673    
     76750   2.2742166      0.67449602     0              4.0841552      9.4891326    
     77000   2.1681531      0.6675685      0              3.9182101      9.315118     
     77250   2.1882828      0.73127998     0              4.0121015      9.8883331    
     77500   2.1476033      0.72310073     0              3.9429328      9.8142423    
     77750   2.1835035      0.67304592     0              3.9467019      9.4161317    
     78000   2.2037422      0.66173476     0              3.9657339      9.3303651    
     78250   2.1726186      0.64913823     0              3.9064749      9.2770429    
     78500   2.2019126      0.65744868     0              3.9587049      9.0989807    
     78750   2.0674048      0.69888573     0              3.7984787      9.4085633    
     79000   2.2026248      0.67138409     0              3.9737081      9.3777458    
     79250   2.1129862      0.65499514     0              3.8229268      9.1630426    
     79500   2.2295765      0.66577262     0              4.0085043      9.4931816    
     79750   2.1754995      0.56561929     0              3.8272751      8.5010241    
     80000   2.1496112      0.66567894     0              3.8885214      9.1565655    
     80250   2.0908487      0.61696118     0              3.7517029      8.7991023    
     80500   2.1526641      0.65535204     0              3.8827716      9.1227662    
     80750   2.0359242      0.58917528     0              3.6415704      8.5078016    
     81000   2.1339926      0.63862759     0              3.8380535      9.0285575    
     81250   2.0323092      0.64709509     0              3.6940703      9.0675202    
     81500   2.1414031      0.6308173      0              3.8413535      9.0293581    
     81750   2.0673615      0.59492172     0              3.6944498      8.5763542    
     82000   2.1617677      0.61142225     0              3.8524905      8.733655     
     82250   2.0739994      0.60158605     0              3.7110662      8.6555093    
     82500   2.0872609      0.58921156     0              3.7185742      8.6013944    
     82750   2.0593302      0.60016058     0              3.6876476      8.6685301    
     83000   2.0453887      0.59904406     0              3.6656291      8.7758829    
     83250   2.0356812      0.61404483     0              3.6660756      8.7919813    
     83500   1.9746469      0.61240103     0              3.5729252      8.7328558    
     83750   2.065687       0.6133396      0              3.7103571      8.8777388    
     84000   1.9532414      0.59808535     0              3.5265168      8.520697     
     84250   2.0137788      0.6201         0              3.6392932      8.820202     
     84500   1.9509889      0.54080041     0              3.4658548      8.0961613    
     84750   2.0187309      0.61083799     0              3.6374558      8.8282646    
     85000   1.9325858      0.60325721     0              3.5007205      8.6219194    
     85250   2.0226404      0.59877087     0              3.63125        8.7136184    
     85500   1.946143       0.59302469     0              3.5108138      8.4795676    
     85750   2.0505925      0.61558611     0              3.689973       8.7779281    
     86000   1.9436039      0.5759922      0              3.4899745      8.5454168    
     86250   1.941912       0.62586985     0              3.5373155      8.7705804    
     86500   1.9246283      0.56043067     0              3.4459635      8.3173171    
     86750   1.9635602      0.56984477     0              3.5137469      8.2377689    
     87000   1.9127054      0.57596993     0              3.4436271      8.4179942    
     87250   1.9743291      0.56402329     0              3.5240709      8.2727926    
     87500   1.9063753      0.54007156     0              3.3982382      8.0006243    
     87750   1.962783       0.58122326     0              3.5239602      8.4237111    
     88000   1.9127827      0.50173607     0              3.3695091      7.6789251    
     88250   1.8699637      0.57056429     0              3.3741403      8.2335008    
     88500   1.8579377      0.59512895     0              3.3806748      8.5349764    
     88750   1.8422665      0.57518371     0              3.3372341      8.3675886    
     89000   1.8358685      0.5429545      0              3.2954126      8.0858061    
     89250   1.8646339      0.54032269     0              3.3359078      7.9965271    
     89500   1.8715989      0.57860801     0              3.3846355      8.2114068    
     89750   1.8390811      0.55076124     0              3.308036       8.1003557    
     90000   1.8347431      0.56804622     0              3.3188171      8.2645503    
     90250   1.823578       0.57200909     0              3.3060404      8.2532576    
     90500   1.8132385      0.57420177     0              3.2927315      8.3090141    
     90750   1.7908331      0.51169173     0              3.1966297      7.8077686    
     91000   1.8230603      0.56470352     0              3.2979588      8.1984209    
     91250   1.7457294      0.53350461     0              3.1508201      7.8499644    
     91500   1.7867235      0.54698205     0              3.2257586      8.0499965    
     91750   1.7538347      0.55325233     0              3.1827198      8.0362321    
     92000   1.7980134      0.51283527     0              3.2085385      7.7728452    
     92250   1.7594122      0.53193604     0              3.1697658      7.9181538    
     92500   1.7643168      0.55253694     0              3.1977199      7.9887126    
     92750   1.7481679      0.49856812     0              3.1195396      7.5638318    
     93000   1.7413986      0.54801185     0              3.1588343      8.015576     
     93250   1.6935173      0.51550987     0              3.0545455      7.6519196    
     93500   1.7772038      0.51850337     0              3.1830074      7.6573451    
     93750   1.7028951      0.51187908     0              3.0649745      7.73077      
     94000   1.7255412      0.52815227     0              3.1152002      7.8778785    
     94250   1.704708       0.44032404     0              2.9961375      7.0005961    
     94500   1.7661156      0.47939003     0              3.1272699      7.4281699    
     94750   1.6950991      0.49219616     0              3.0336033      7.4840387    
     95000   1.7271136      0.50022264     0              3.0896281      7.5491648    
     95250   1.6542797      0.48589612     0              2.966104       7.3357636    
     95500   1.738836       0.49975779     0              3.1067383      7.6511369    
     95750   1.6376497      0.53076079     0              2.9860359      7.832378     
     96000   1.6881655      0.45320506     0              2.9842168      7.1562355    
     96250   1.64935        0.47718864     0              2.9500056      7.3399828    
     96500   1.6568876      0.47198499     0              2.9561028      7.3375127    
     96750   1.6456796      0.47920817     0              2.9465223      7.3571374    
     97000   1.6772387      0.44059537     0              2.9552249      6.9015077    
     97250   1.6370296      0.45363828     0              2.9079836      7.071687     
     97500   1.6292631      0.46233798     0              2.9050394      7.0919031    
     97750   1.6398377      0.44791422     0              2.9064696      7.0307822    
     98000   1.5918967      0.49428612     0              2.8809652      7.443317     
     98250   1.5808106      0.46856516     0              2.8386233      7.1782413    
     98500   1.5725682      0.46933067     0              2.8270313      7.1139039    
     98750   1.5939786      0.42153763     0              2.8113381      6.7893565    
     99000   1.5801533      0.45347576     0              2.8225483      7.0615202    
     99250   1.5555894      0.43818606     0              2.7704308      6.9707251    
     99500   1.5430426      0.43682375     0              2.7502574      6.8625631    
     99750   1.577933       0.44120228     0              2.8069461      7.0226108    
    100000   1.514606       0.44415351     0              2.7149532      6.8617364    
    100250   1.5356497      0.46821922     0              2.770569       7.166        
    100500   1.5184671      0.45217792     0              2.7287664      7.093527     
    100750   1.5283325      0.44616925     0              2.7375486      6.9557654    
    101000   1.5176463      0.44334027     0              2.7186982      6.9118983    
    101250   1.5182765      0.44947424     0              2.7257769      6.964153     
    101500   1.5159711      0.43194808     0              2.7047944      6.7297716    
    101750   1.4566625      0.40804058     0              2.5919674      6.535759     
    102000   1.5369918      0.39934272     0              2.7037046      6.5022544    
    102250   1.4503591      0.41251871     0              2.586995       6.5633706    
    102500   1.4994987      0.46489373     0              2.7130435      7.0572401    
    102750   1.470928       0.37472877     0              2.5800435      6.2219906    
    103000   1.504497       0.42129177     0              2.6769354      6.6867631    
    103250   1.4213202      0.44981331     0              2.5807527      6.8370338    
    103500   1.4355341      0.40609504     0              2.5583448      6.5670384    
    103750   1.4316697      0.41426392     0              2.5607199      6.5901572    
    104000   1.4222627      0.40409287     0              2.5364452      6.4918166    
    104250   1.4441917      0.41260327     0              2.5778331      6.5127722    
    104500   1.4058817      0.38609324     0              2.4938861      6.2912302    
    104750   1.4653448      0.39953556     0              2.5964796      6.4434323    
    105000   1.3874809      0.38829819     0              2.4685033      6.2558728    
    105250   1.408814       0.38921495     0              2.5014041      6.2433971    
    105500   1.3644825      0.4094704      0              2.4551947      6.4906326    
    105750   1.3739121      0.40886844     0              2.4687304      6.5943714    
    106000   1.3617509      0.39438459     0              2.4360136      6.3694359    
    106250   1.3733878      0.38041095     0              2.4394867      6.2538853    
    106500   1.3722429      0.36658446     0              2.4239438      6.0869701    
    106750   1.3676488      0.35244698     0              2.4029185      5.9351866    
    107000   1.3561011      0.37608864     0              2.409247       6.10981      
    107250   1.3440824      0.37546815     0              2.3906073      6.1045026    
    107500   1.3294065      0.37694386     0              2.3700799      6.2083033    
    107750   1.3172283      0.37496988     0              2.3498476      6.0877375    
    108000   1.311733       0.36712317     0              2.3337619      6.0953824    
    108250   1.331187       0.33485341     0              2.3306589      5.8021967    
    108500   1.3057774      0.35583623     0              2.3135459      5.9048246    
    108750   1.2946227      0.34577803     0              2.2867639      5.8248153    
    109000   1.2961784      0.37143003     0              2.3147482      6.0501799    
    109250   1.2868352      0.35029878     0              2.2796091      5.873428     
    109500   1.2893021      0.32372848     0              2.2567373      5.5766199    
    109750   1.2897608      0.32644492     0              2.2601414      5.611623     
    110000   1.2582781      0.32150871     0              2.2080043      5.542602     
    110250   1.2620236      0.35749825     0              2.2496094      5.861282     
    110500   1.2561067      0.33001802     0              2.2132581      5.5890895    
    110750   1.2273173      0.34308163     0              2.1831587      5.6093052    
    111000   1.2345059      0.34671247     0              2.1975671      5.8449865    
    111250   1.2212304      0.34590764     0              2.1768588      5.8054227    
    111500   1.2040408      0.34731708     0              2.1524964      5.8031685    
    111750   1.2233034      0.31696377     0              2.1510229      5.4845111    
    112000   1.2070183      0.31650457     0              2.126148       5.4353005    
    112250   1.1661142      0.33883259     0              2.0871498      5.5482772    
    112500   1.1973372      0.3271563      0              2.1222852      5.5222351    
    112750   1.1455588      0.32342514     0              2.0409243      5.5334663    
    113000   1.1900631      0.32194104     0              2.106164       5.4818186    
    113250   1.1823331      0.2859692      0              2.0586029      5.1004838    
    113500   1.1472355      0.32462131     0              2.0446343      5.4980562    
    113750   1.1444949      0.32491811     0              2.0408221      5.4540076    
    114000   1.133474       0.30546965     0              2.0048505      5.2025896    
    114250   1.1489371      0.2966527      0              2.0192169      5.2269263    
    114500   1.1056453      0.27534114     0              1.9329992      4.9271493    
    114750   1.1511728      0.29586641     0              2.0217825      5.1671455    
    115000   1.093364       0.32363645     0              1.9628816      5.4498817    
    115250   1.1084366      0.28970787     0              1.9515509      5.096725     
    115500   1.1011215      0.27844003     0              1.9293158      4.9693866    
    115750   1.1054244      0.27379282     0              1.9311198      4.8823485    
    116000   1.0995311      0.26838575     0              1.9168771      4.8799282    
    116250   1.0568409      0.30202813     0              1.8865154      5.1187334    
    116500   1.0590647      0.2888544      0              1.8766758      5.037609     
    116750   1.070948       0.27363688     0              1.8792745      4.9382254    
    117000   1.051711       0.27598705     0              1.8527833      4.8751998    
    117250   1.0421248      0.28339144     0              1.8458154      5.0477021    
    117500   1.0366511      0.26191867     0              1.816136       4.7118965    
    117750   1.0606123      0.25881285     0              1.8489544      4.7169327    
    118000   1.0191608      0.26833865     0              1.7963335      4.8217075    
    118250   1.0178659      0.28332578     0              1.8093792      4.9603475    
    118500   1.0114003      0.25417552     0              1.7705353      4.6126777    
    118750   1.028323       0.26541271     0              1.8071441      4.8325682    
    119000   1.0085533      0.21660758     0              1.7286988      4.2230377    
    119250   1.0081844      0.2607351      0              1.7722733      4.7521098    
    119500   0.96157268     0.25609439     0              1.6977491      4.6917047    
    119750   0.98787764     0.25421068     0              1.7353036      4.5977052    
    120000   0.93489991     0.24887156     0              1.6505367      4.5519162    
    120250   0.97473622     0.26338087     0              1.7247713      4.761869     
    120500   0.94238779     0.23622299     0              1.6491144      4.4218144    
    120750   0.99457711     0.25533735     0              1.7464746      4.7023408    
    121000   0.94516391     0.21291448     0              1.6299681      4.1703055    
    121250   0.93984887     0.26205988     0              1.6711448      4.6969895    
    121500   0.91711349     0.22145857     0              1.5964571      4.3026803    
    121750   0.92510503     0.23969618     0              1.6266762      4.4986278    
    122000   0.9263328      0.21384847     0              1.6026692      4.1074849    
    122250   0.89164119     0.21809102     0              1.5548998      4.1844552    
    122500   0.89607976     0.25954264     0              1.603006       4.5962444    
    122750   0.8897561      0.21607966     0              1.5500621      4.2042868    
    123000   0.88654664     0.22248711     0              1.5516577      4.1341407    
    123250   0.86306764     0.20337526     0              1.4973446      3.9640756    
    123500   0.87882382     0.21012424     0              1.5277163      4.0897782    
    123750   0.85285797     0.21359537     0              1.4922577      4.1529664    
    124000   0.85971385     0.21906427     0              1.5080054      4.1819127    
    124250   0.84225275     0.21849752     0              1.4812598      4.1618423    
    124500   0.84030244     0.19808531     0              1.4579235      3.9180701    
    124750   0.84510038     0.20729497     0              1.4743266      3.9676187    
    125000   0.81355183     0.1901536      0              1.4098855      3.8106887    
    125250   0.83447801     0.20625895     0              1.4573648      4.0997906    
    125500   0.7921219      0.20826245     0              1.3958651      3.9622159    
    125750   0.80451979     0.20288135     0              1.4090718      3.875094     
    126000   0.79655412     0.19700366     0              1.3912514      3.8620919    
    126250   0.79371009     0.18628723     0              1.376271       3.7638257    
    126500   0.77813708     0.18635053     0              1.3529862      3.7820347    
    126750   0.7754223      0.18150125     0              1.3440668      3.6324817    
    127000   0.75362842     0.20326411     0              1.3331548      3.8633356    
    127250   0.76350516     0.17987806     0              1.3245766      3.5995813    
    127500   0.73431441     0.1807849      0              1.2817187      3.5573248    
    127750   0.75490071     0.18666563     0              1.3184638      3.77022      
    128000   0.73311147     0.18157348     0              1.2807037      3.6865861    
    128250   0.71715657     0.16050736     0              1.235717       3.3928683    
    128500   0.73648382     0.17952363     0              1.2837099      3.6243702    
    128750   0.72107994     0.16005647     0              1.2411482      3.3812025    
    129000   0.70794606     0.16991252     0              1.2313131      3.4696453    
    129250   0.70695853     0.1547414      0              1.2146614      3.3145117    
    129500   0.69528381     0.15854382     0              1.2009603      3.2499864    
    129750   0.6954883      0.15767652     0              1.2003996      3.3245518    
    130000   0.66110188     0.14922412     0              1.1403927      3.168305     
    130250   0.68733915     0.15714352     0              1.1876488      3.3382934    
    130500   0.66019143     0.14177425     0              1.1315779      3.118393     
    130750   0.66326349     0.1494746      0              1.143884       3.1995842    
    131000   0.6347933      0.14239928     0              1.0941243      3.0891401    
    131250   0.6592237      0.15432281     0              1.1426755      3.2202456    
    131500   0.6373136      0.14599288     0              1.1014965      3.1174774    
    131750   0.61584469     0.12912641     0              1.0524424      2.9421036    
    132000   0.63014889     0.15269928     0              1.0974611      3.1921514    
    132250   0.60032381     0.15163697     0              1.051683       3.1476469    
    132500   0.61117106     0.13769613     0              1.0540051      2.9877905    
    132750   0.58609137     0.13650871     0              1.0152165      2.9645632    
    133000   0.59589485     0.13331797     0              1.0267238      2.9470392    
    133250   0.57751163     0.13051057     0              0.99635504     2.9145204    
    133500   0.60895414     0.13076274     0              1.0437479      2.982471     
    133750   0.57925768     0.11547872     0              0.98394099     2.7140313    
    134000   0.56639847     0.12496903     0              0.9741519      2.7952871    
    134250   0.55592211     0.12642184     0              0.95989783     2.7830197    
    134500   0.55057058     0.11935292     0              0.94480554     2.7468768    
    134750   0.54302061     0.11582785     0              0.92996105     2.715384     
    135000   0.54400592     0.11312838     0              0.92873882     2.6648105    
    135250   0.5185323      0.1135255      0              0.89094417     2.6149616    
    135500   0.5331757      0.11532882     0              0.91470186     2.7005522    
    135750   0.50726068     0.10894138     0              0.86946087     2.5417366    
    136000   0.51101168     0.10087944     0              0.86702268     2.4598158    
    136250   0.4989067      0.096074253    0              0.84406889     2.3663563    
    136500   0.48401623     0.11433337     0              0.8400032      2.6456429    
    136750   0.4989355      0.09191383     0              0.83995165     2.3114474    
    137000   0.47983421     0.095857903    0              0.81525778     2.3347929    
    137250   0.47418942     0.092706894    0              0.80364372     2.2919205    
    137500   0.45528063     0.093435731    0              0.77602321     2.2847542    
    137750   0.46979629     0.1009474      0              0.80529775     2.369756     
    138000   0.44910328     0.087926249    0              0.76125224     2.1995121    
    138250   0.43689386     0.094251776    0              0.74927257     2.2699062    
    138500   0.44072288     0.086046389    0              0.74680791     2.1727759    
    138750   0.42943207     0.086149944    0              0.72998353     2.1867592    
    139000   0.41248635     0.087906944    0              0.70633435     2.1640565    
    139250   0.42072995     0.080891496    0              0.71167826     2.0743817    
    139500   0.40614843     0.073944467    0              0.68286963     1.9611229    
    139750   0.4111266      0.081794998    0              0.69818378     2.1107038    
    140000   0.38910428     0.075919312    0              0.65929074     2.0056728    
    140250   0.38555326     0.069811598    0              0.6478591      1.8583337    
    140500   0.38056698     0.072795408    0              0.64336714     1.9429054    
    140750   0.36786213     0.070719446    0              0.62224321     1.8785144    
    141000   0.36248387     0.065788626    0              0.60924894     1.8153778    
    141250   0.3556913      0.065728265    0              0.5990047      1.811909     
    141500   0.34150147     0.067969554    0              0.57997164     1.805801     
    141750   0.34806364     0.063262821    0              0.58510334     1.7274288    
    142000   0.33097237     0.062173134    0              0.55838928     1.7178793    
    142250   0.32650017     0.058806477    0              0.54831759     1.6305134    
    142500   0.31723758     0.04960139     0              0.5252254      1.5208833    
    142750   0.32341893     0.058382437    0              0.54327396     1.6741901    
    143000   0.30207724     0.056474251    0              0.50936887     1.5578037    
    143250   0.29189836     0.05177819     0              0.48941194     1.5427349    
    143500   0.29496122     0.053433197    0              0.49565899     1.5655995    
    143750   0.28057745     0.051498435    0              0.4721591      1.5440075    
    144000   0.27260558     0.046855702    0              0.45556441     1.4482556    
    144250   0.26548519     0.055028537    0              0.45306187     1.5195932    
    144500   0.26145401     0.045472266    0              0.43746178     1.4301107    
    144750   0.24959085     0.043557556    0              0.41776103     1.3294114    
    145000   0.24200729     0.042939372    0              0.40577305     1.3158965    
    145250   0.23787732     0.039069405    0              0.39571116     1.2588628    
    145500   0.2273341      0.035604151    0              0.37643879     1.1732164    
    145750   0.23211807     0.038977611    0              0.3869847      1.2441085    
    146000   0.21620072     0.035049557    0              0.35919229     1.1582486    
    146250   0.20592094     0.033104461    0              0.34183505     1.1193046    
    146500   0.19871255     0.030869473    0              0.32879276     1.0296139    
    146750   0.1955251      0.03207009     0              0.32521453     1.1083625    
    147000   0.18630104     0.030181479    0              0.30949659     1.0357634    
    147250   0.1809748      0.025792254    0              0.29712191     0.96829437   
    147500   0.17236637     0.025610547    0              0.28403386     0.93354668   
    147750   0.1643466      0.025402145    0              0.27180168     0.92303635   
    148000   0.15796394     0.022716131    0              0.25954634     0.86290189   
    148250   0.14893869     0.024410324    0              0.24770928     0.89913459   
    148500   0.14601683     0.01857576     0              0.23749405     0.75850726   
    148750   0.13889212     0.016330592    0              0.22456705     0.70836366   
    149000   0.12962335     0.016902667    0              0.21124276     0.69150664   
    149250   0.12421679     0.014893013    0              0.20112722     0.67125299   
    149500   0.11611966     0.015092946    0              0.18918739     0.64615613   
    149750   0.10816023     0.01401171     0              0.17617283     0.61235291   
    150000   0.10192922     0.011650858    0              0.16447003     0.56059129   
Loop time of 24.2679 on 1 procs for 100000 steps with 2048 atoms

Performance: 1780131.495 tau/day, 4120.675 timesteps/s, 8.439 Matom-step/s
97.8% CPU use with 1 MPI tasks x 1 OpenMP threads

MPI task timing breakdown:
Section |  min time  |  avg time  |  max time  |%varavg| %total
---------------------------------------------------------------
Pair    | 6.3788     | 6.3788     | 6.3788     |   0.0 | 26.28
Neigh   | 12.952     | 12.952     | 12.952     |   0.0 | 53.37
Comm    | 1.2174     | 1.2174     | 1.2174     |   0.0 |  5.02
Output  | 0.46293    | 0.46293    | 0.46293    |   0.0 |  1.91
Modify  | 2.544      | 2.544      | 2.544      |   0.0 | 10.48
Other   |            | 0.7126     |            |       |  2.94

Nlocal:           2048 ave        2048 max        2048 min
Histogram: 1 0 0 0 0 0 0 0 0 0
Nghost:           1404 ave        1404 max        1404 min
Histogram: 1 0 0 0 0 0 0 0 0 0
Neighs:           7880 ave        7880 max        7880 min
Histogram: 1 0 0 0 0 0 0 0 0 0

Total # of neighbors = 7880
Ave neighs/atom = 3.8476562
Neighbor list builds = 15486
Dangerous builds = 0
Total wall time: 0:00:39
