ITEM: TIMESTEP
100000
ITEM: NUMBER OF ATOMS
2048
ITEM: BOX BOUNDS pp pp pp
0.0000000000000000e+00 1.1635780856594225e+01
0.0000000000000000e+00 1.1635780856594225e+01
0.0000000000000000e+00 1.1635780856594225e+01
ITEM: ATOMS id type xs ys zs
3 1 0.0622182 0.996091 0.0574126
7 1 0.193691 0.00509842 0.0579943
11 1 0.317109 0.00922934 0.0599627
19 1 0.561079 0.00177592 0.0642358
21 1 0.632899 0.00363816 0.999724
25 1 0.745444 0.00612157 0.00144795
26 1 0.815737 0.0621314 -0.000149345
29 1 0.877287 0.00556846 0.0127713
1 1 0.997641 0.00426322 0.999773
2 1 0.0638153 0.0618261 0.00324602
8 1 0.128831 0.0682835 0.0633443
16 1 0.374201 0.0683503 0.0612526
20 1 0.496887 0.0643693 0.0679229
22 1 0.691866 0.0684372 0.988483
30 1 0.935773 0.072498 0.0041785
39 1 0.183028 0.133957 0.0730496
45 1 0.374271 0.126995 0.00233802
47 1 0.438551 0.125178 0.0575062
57 1 0.754801 0.125114 0.998965
61 1 0.871936 0.132393 -0.0011648
36 1 0.993993 0.18739 0.067655
34 1 0.0642303 0.183201 0.999701
40 1 0.121277 0.187145 0.0676207
44 1 0.239505 0.193335 0.0609231
54 1 0.688903 0.193046 0.990747
58 1 0.811171 0.194198 0.00298609
62 1 0.932823 0.188795 0.00162173
69 1 0.119075 0.2461 0.00476473
71 1 0.176445 0.246483 0.0596502
81 1 0.496127 0.253534 0.00337423
85 1 0.627135 0.254682 0.00135565
65 1 0.992001 0.247559 0.998334
68 1 0.992753 0.311876 0.0528089
72 1 0.124716 0.314993 0.0653654
76 1 0.240388 0.300736 0.0535646
80 1 0.371302 0.312037 0.056631
78 1 0.44163 0.320475 0.0035749
82 1 0.55978 0.311626 0.00775245
86 1 0.684991 0.311795 0.994154
90 1 0.807038 0.311657 0.999557
99 1 0.0524365 0.376694 0.0585013
103 1 0.1856 0.372817 0.0645938
105 1 0.246862 0.375691 0.00805306
107 1 0.306679 0.377229 0.0596529
109 1 0.370244 0.371795 0.00154863
113 1 0.504411 0.374873 0.00336336
127 1 0.934806 0.380703 0.0620518
102 1 0.18861 0.435171 0.000891084
112 1 0.379062 0.437103 0.059478
110 1 0.439242 0.437232 0.000721704
114 1 0.564667 0.450068 0.000140847
118 1 0.683571 0.445498 0.00397279
122 1 0.80488 0.436172 0.00120821
126 1 0.93744 0.443126 0.995982
129 1 0.997292 0.513629 1.00077
133 1 0.124732 0.494222 0.00316097
137 1 0.254429 0.499329 0.997246
145 1 0.504531 0.507057 0.999851
153 1 0.745782 0.50188 0.00159783
157 1 0.871075 0.495579 0.000508117
130 1 0.0633633 0.568337 0.00407165
138 1 0.320092 0.555316 0.998154
144 1 0.372556 0.568799 0.0576916
146 1 0.564132 0.571427 0.997852
154 1 0.81119 0.559753 0.994601
158 1 0.924911 0.561163 0.995534
163 1 0.0631933 0.625405 0.0641845
165 1 0.123268 0.622789 -0.000284721
171 1 0.320484 0.634315 0.065258
181 1 0.635516 0.637819 0.00194826
185 1 0.746401 0.627223 0.995661
176 1 0.377483 0.694463 0.0529921
178 1 0.564769 0.689365 0.00791781
182 1 0.697145 0.690449 0.993974
186 1 0.812805 0.687848 0.998035
190 1 0.938455 0.687392 0.0108091
195 1 0.0655876 0.743721 0.0700771
203 1 0.312744 0.749296 0.0593317
209 1 0.49794 0.752492 0.0060176
217 1 0.750954 0.753494 0.00334021
219 1 0.82179 0.750235 0.0590401
221 1 0.871126 0.74023 0.994079
200 1 0.131369 0.808283 0.0657095
198 1 0.197685 0.809154 0.00243132
208 1 0.383027 0.818746 0.067126
235 1 0.315628 0.880523 0.0685616
210 1 0.558822 0.805661 0.995421
245 1 0.623286 0.86435 0.998603
253 1 0.870139 0.881574 0.99859
255 1 0.937602 0.880412 0.0633804
225 1 0.995141 0.882203 1.00022
228 1 0.998907 0.942216 0.0653638
248 1 0.632202 0.932227 0.0576384
246 1 0.692929 0.927677 0.00433068
250 1 0.812837 0.943998 0.00373052
5 1 0.128894 0.00428832 0.00838271
244 1 0.49872 0.943943 0.0524123
254 1 0.928135 0.944052 0.00343443
15 1 0.434469 0.00778362 0.0609424
32 1 0.873999 0.0692561 0.0708822
4 1 0.000415254 0.0730002 0.0567801
12 1 0.247441 0.0646763 0.0674941
51 1 0.566064 0.12528 0.061426
24 1 0.629324 0.0674941 0.0533158
28 1 0.740314 0.067138 0.061834
35 1 0.0597853 0.134397 0.0638362
43 1 0.312008 0.127618 0.0593239
305 1 0.497292 0.135746 0.12317
55 1 0.686492 0.134432 0.0552423
59 1 0.80603 0.121237 0.0638303
63 1 0.934562 0.127911 0.0608755
48 1 0.37441 0.18735 0.0661456
52 1 0.495434 0.18739 0.059062
56 1 0.621211 0.190706 0.0679165
60 1 0.749486 0.185295 0.060761
64 1 0.872223 0.198035 0.0608118
67 1 0.0590511 0.239817 0.0652101
75 1 0.301356 0.248092 0.062496
79 1 0.433763 0.251837 0.0666484
83 1 0.56727 0.251123 0.0645044
87 1 0.688915 0.248077 0.0635357
91 1 0.811167 0.257207 0.0653889
95 1 0.930154 0.25818 0.0589305
330 1 0.303222 0.315158 0.111173
84 1 0.498721 0.307948 0.0635651
88 1 0.629889 0.31077 0.064571
92 1 0.743232 0.313225 0.0577576
96 1 0.872512 0.316825 0.0615091
353 1 0.996649 0.381608 0.118429
365 1 0.368032 0.373627 0.116027
111 1 0.443477 0.378514 0.0706464
115 1 0.561661 0.375104 0.0630677
119 1 0.691193 0.376698 0.072355
123 1 0.804995 0.376179 0.0667977
104 1 0.127253 0.435036 0.0638407
108 1 0.251219 0.44163 0.0629151
116 1 0.500268 0.433728 0.0618857
120 1 0.62248 0.439672 0.0551962
124 1 0.748267 0.440091 0.0594522
128 1 0.865976 0.435461 0.066977
100 1 0.996606 0.441389 0.0554728
131 1 0.0657072 0.494574 0.06362
135 1 0.186766 0.498664 0.056668
139 1 0.317692 0.497725 0.0658581
143 1 0.441214 0.496044 0.0598733
147 1 0.561919 0.506794 0.0640252
151 1 0.695615 0.508866 0.06553
155 1 0.805832 0.500144 0.060358
159 1 0.930985 0.496225 0.0562639
132 1 0.00338164 0.559526 0.0670627
136 1 0.128306 0.560489 0.0578205
140 1 0.264069 0.562063 0.0560043
148 1 0.496924 0.566068 0.0630891
152 1 0.622292 0.571909 0.0638042
156 1 0.750593 0.572595 0.0688015
160 1 0.876418 0.560426 0.0664724
167 1 0.188026 0.6175 0.0584273
429 1 0.376237 0.631252 0.127541
175 1 0.441219 0.628192 0.0710809
179 1 0.561856 0.62922 0.0634522
183 1 0.686457 0.623831 0.068757
187 1 0.816441 0.623907 0.0748191
191 1 0.942409 0.61233 0.0590316
168 1 0.130201 0.682057 0.0623774
172 1 0.252096 0.681564 0.0621301
180 1 0.501113 0.690347 0.0696339
184 1 0.630001 0.691765 0.0619872
188 1 0.761056 0.687071 0.0587059
192 1 0.876745 0.68892 0.0667794
164 1 0.00632164 0.691509 0.0719092
199 1 0.189492 0.738364 0.0676813
207 1 0.438115 0.757075 0.0657524
211 1 0.56321 0.752697 0.0637682
215 1 0.695176 0.755568 0.064951
223 1 0.941788 0.749256 0.0623246
204 1 0.255127 0.821784 0.0633
212 1 0.498737 0.815371 0.0617826
216 1 0.625492 0.810632 0.0708554
220 1 0.758142 0.814164 0.0624979
224 1 0.883299 0.814438 0.0560041
196 1 0.995647 0.813143 0.0598546
227 1 0.0598682 0.86681 0.06057
231 1 0.182838 0.872996 0.0687991
239 1 0.442742 0.881047 0.063195
243 1 0.560809 0.883728 0.0553867
247 1 0.690999 0.872115 0.0686457
251 1 0.817147 0.874246 0.0602818
236 1 0.246979 0.932626 0.0517254
493 1 0.376963 0.876376 0.127441
252 1 0.749878 0.947478 0.0625323
232 1 0.12079 0.935878 0.0665514
490 1 0.312027 0.938581 0.134215
240 1 0.376295 0.942519 0.065002
23 1 0.685365 0.00439581 0.0691579
27 1 0.803394 0.0140346 0.0634635
256 1 0.874723 0.93887 0.0674156
31 1 0.945008 0.00299828 0.061792
261 1 0.117994 0.00146034 0.120454
265 1 0.264927 0.00726329 0.125193
269 1 0.372984 0.00462116 0.124936
273 1 0.497397 -0.000244591 0.121303
278 1 0.697033 0.0724268 0.125618
281 1 0.749613 0.00157639 0.128194
257 1 0.997254 0.997213 0.134443
258 1 0.0529835 0.0599112 0.119543
262 1 0.192954 0.0606796 0.122399
266 1 0.318911 0.0711903 0.125469
270 1 0.440853 0.0666117 0.12751
274 1 0.555653 0.0681393 0.127382
282 1 0.810326 0.065689 0.130682
286 1 0.930645 0.0661291 0.134587
289 1 0.99577 0.12415 0.123155
293 1 0.120661 0.120697 0.130918
297 1 0.251852 0.129504 0.125438
301 1 0.382608 0.126456 0.125181
309 1 0.626913 0.118741 0.121908
313 1 0.755038 0.132623 0.128278
317 1 0.878022 0.130009 0.123865
290 1 0.065303 0.18719 0.126887
294 1 0.186829 0.19678 0.128546
298 1 0.315543 0.184662 0.122071
302 1 0.432078 0.192178 0.126806
306 1 0.563431 0.184235 0.124772
310 1 0.691892 0.189477 0.127165
314 1 0.816791 0.187566 0.118082
318 1 0.934399 0.193676 0.120727
321 1 0.993483 0.254469 0.121094
325 1 0.119659 0.247965 0.11902
329 1 0.251434 0.255329 0.129345
333 1 0.364228 0.249994 0.128107
337 1 0.49365 0.245486 0.118473
341 1 0.627526 0.245556 0.129593
345 1 0.748588 0.249859 0.1291
349 1 0.875993 0.255726 0.122807
322 1 0.0633979 0.313 0.128847
326 1 0.177046 0.31231 0.126778
334 1 0.433844 0.318126 0.131361
338 1 0.560243 0.309216 0.121345
342 1 0.69204 0.316646 0.13014
346 1 0.798093 0.314265 0.128795
350 1 0.934823 0.317702 0.122427
357 1 0.125708 0.373677 0.126307
361 1 0.243232 0.373665 0.123755
369 1 0.504228 0.375237 0.128874
373 1 0.622141 0.372925 0.122132
377 1 0.743223 0.38843 0.133081
381 1 0.863553 0.369294 0.126499
354 1 0.0655272 0.432717 0.125247
358 1 0.192068 0.440275 0.118901
362 1 0.312065 0.43907 0.125373
366 1 0.442179 0.444487 0.128545
370 1 0.561986 0.439099 0.119576
374 1 0.684725 0.447419 0.118238
378 1 0.803923 0.44489 0.122886
382 1 0.932165 0.434429 0.126886
389 1 0.129059 0.495477 0.121002
393 1 0.246017 0.502427 0.121075
397 1 0.379897 0.502578 0.121837
401 1 0.504235 0.501536 0.124136
405 1 0.625933 0.505171 0.114969
409 1 0.746177 0.506865 0.126162
413 1 0.871515 0.495638 0.118774
385 1 -0.000444024 0.489359 0.119909
386 1 0.0557102 0.554624 0.127304
390 1 0.190407 0.559288 0.120103
394 1 0.319298 0.559755 0.122731
398 1 0.440905 0.562792 0.120825
402 1 0.568618 0.565392 0.124518
406 1 0.685934 0.562541 0.129164
410 1 0.809628 0.557458 0.130767
414 1 0.947699 0.557554 0.127778
417 1 0.00377763 0.623996 0.119095
421 1 0.123274 0.617431 0.121617
425 1 0.255512 0.618666 0.118246
433 1 0.505137 0.619536 0.126873
437 1 0.62956 0.626732 0.133854
441 1 0.757356 0.631376 0.129711
445 1 0.877251 0.620521 0.129655
418 1 0.0653714 0.686669 0.130131
422 1 0.18699 0.680565 0.125415
426 1 0.321412 0.695304 0.127659
430 1 0.430449 0.694959 0.12395
434 1 0.564203 0.684246 0.126121
438 1 0.691659 0.685649 0.125521
442 1 0.812719 0.692697 0.127819
446 1 0.93922 0.689293 0.120887
453 1 0.128954 0.748183 0.124915
455 1 0.191532 0.740586 0.187116
457 1 0.246484 0.742209 0.124294
461 1 0.377755 0.758676 0.130173
465 1 0.507548 0.755649 0.128461
469 1 0.625957 0.746314 0.122035
473 1 0.749376 0.758281 0.12825
477 1 0.87734 0.755491 0.122232
449 1 0.997123 0.760232 0.124144
450 1 0.0647011 0.80957 0.12418
454 1 0.18521 0.812975 0.127598
458 1 0.310804 0.814147 0.128246
462 1 0.441452 0.815769 0.125959
466 1 0.55956 0.819382 0.126334
470 1 0.686198 0.814122 0.124565
474 1 0.809858 0.820137 0.129905
478 1 0.938977 0.820799 0.125611
481 1 0.00138415 0.878664 0.119536
485 1 0.122081 0.873037 0.125891
489 1 0.24612 0.883027 0.125478
505 1 0.75387 0.886956 0.126341
509 1 0.873653 0.878463 0.123292
497 1 0.504001 0.881718 0.117972
501 1 0.623914 0.881636 0.120041
510 1 0.936048 0.944391 0.123166
482 1 0.0539013 0.93972 0.126011
488 1 0.11245 0.934683 0.184733
486 1 0.190986 0.942542 0.113771
494 1 0.432792 0.948044 0.124651
498 1 0.569979 0.943525 0.119141
277 1 0.628102 0.00670499 0.125137
502 1 0.690194 0.93908 0.118641
506 1 0.810132 0.942672 0.127654
285 1 0.881039 0.00424137 0.12398
259 1 0.0581145 0.000300945 0.193341
263 1 0.174428 0.990286 0.184619
267 1 0.315981 0.00342881 0.189824
271 1 0.436306 0.997515 0.191853
275 1 0.562822 0.000356043 0.185931
283 1 0.809001 0.997752 0.195528
287 1 0.935059 0.993785 0.18978
260 1 1.0003 0.0616653 0.184098
264 1 0.11917 0.0557477 0.183845
268 1 0.248111 0.0602835 0.186501
272 1 0.38094 0.0661521 0.186493
276 1 0.501811 0.0654361 0.187801
280 1 0.623408 0.0674417 0.185883
284 1 0.754443 0.0701201 0.193596
288 1 0.871228 0.0530557 0.192269
291 1 0.0625787 0.122734 0.190547
295 1 0.192447 0.122428 0.18303
299 1 0.323071 0.125021 0.18375
303 1 0.43904 0.128882 0.193881
307 1 0.552901 0.134704 0.185656
311 1 0.688027 0.12812 0.185069
315 1 0.818446 0.134955 0.184505
319 1 0.942073 0.1269 0.193984
292 1 0.000563491 0.193913 0.176017
296 1 0.121819 0.192085 0.187351
300 1 0.247489 0.187767 0.185445
304 1 0.371051 0.190482 0.183129
308 1 0.497055 0.191423 0.18572
312 1 0.621929 0.185525 0.182463
316 1 0.753078 0.185627 0.195441
320 1 0.881251 0.186568 0.191502
323 1 0.0570499 0.252495 0.186856
327 1 0.19009 0.258143 0.189964
331 1 0.307509 0.254413 0.19113
335 1 0.433156 0.246765 0.190676
339 1 0.559063 0.25331 0.182715
343 1 0.687832 0.248879 0.184524
347 1 0.809361 0.246885 0.188975
351 1 0.935747 0.247908 0.188053
328 1 0.120465 0.306814 0.188681
332 1 0.245535 0.31959 0.193561
336 1 0.368064 0.313816 0.186848
340 1 0.499773 0.316488 0.187217
344 1 0.625342 0.312569 0.183095
348 1 0.7447 0.311289 0.19039
352 1 0.870213 0.307786 0.186145
324 1 0.992153 0.319999 0.187857
355 1 0.0615998 0.375058 0.190784
359 1 0.179852 0.372634 0.190623
363 1 0.308634 0.37548 0.182769
367 1 0.436219 0.385098 0.187428
371 1 0.561548 0.377702 0.185096
375 1 0.681085 0.380131 0.182418
379 1 0.804751 0.368185 0.199613
383 1 0.933201 0.372797 0.184425
360 1 0.11839 0.43087 0.186083
364 1 0.251561 0.436253 0.187187
368 1 0.370094 0.441422 0.190261
372 1 0.510115 0.441918 0.185245
376 1 0.623025 0.439779 0.182409
380 1 0.755106 0.44889 0.191164
384 1 0.865085 0.43623 0.179139
356 1 1.00043 0.432526 0.190407
387 1 0.071323 0.495297 0.182023
391 1 0.189241 0.4958 0.189103
395 1 0.31881 0.504024 0.183308
399 1 0.440104 0.501701 0.18742
403 1 0.570895 0.503392 0.183857
407 1 0.687717 0.50431 0.189969
411 1 0.816986 0.505143 0.197952
415 1 0.942796 0.495601 0.186445
392 1 0.12977 0.555944 0.177653
396 1 0.255381 0.558715 0.184372
400 1 0.373356 0.568728 0.183709
404 1 0.500942 0.554888 0.186556
408 1 0.621284 0.569419 0.192524
412 1 0.750356 0.566567 0.189101
416 1 0.876964 0.562549 0.191863
388 1 0.00133687 0.556088 0.197636
419 1 0.0646345 0.622345 0.177517
423 1 0.187833 0.613368 0.183722
427 1 0.308408 0.622051 0.185112
431 1 0.441671 0.631445 0.185275
435 1 0.558267 0.624641 0.190309
439 1 0.691571 0.631755 0.192003
443 1 0.819236 0.625207 0.193414
447 1 0.941644 0.628939 0.185287
420 1 0.994046 0.69793 0.185348
424 1 0.129631 0.678925 0.183633
428 1 0.249922 0.678823 0.181306
432 1 0.379764 0.688782 0.19
436 1 0.501004 0.687119 0.182711
440 1 0.624718 0.694803 0.184502
444 1 0.751354 0.689634 0.187022
448 1 0.870527 0.689804 0.190459
451 1 0.0644353 0.749135 0.185401
459 1 0.307253 0.752508 0.18544
463 1 0.431438 0.753507 0.188741
467 1 0.565696 0.75404 0.184502
471 1 0.68463 0.75127 0.185267
475 1 0.81567 0.753228 0.186331
479 1 0.929283 0.750665 0.18596
456 1 0.124199 0.81232 0.180371
460 1 0.249906 0.813674 0.183945
464 1 0.375306 0.816962 0.186865
468 1 0.49968 0.815674 0.189284
476 1 0.749069 0.816086 0.184051
480 1 0.87282 0.812734 0.189783
452 1 0.993065 0.818078 0.185244
483 1 0.0579151 0.869255 0.185852
487 1 0.180228 0.875484 0.18678
491 1 0.316306 0.883777 0.197688
495 1 0.432903 0.874527 0.198136
472 1 0.622058 0.819726 0.182734
503 1 0.679537 0.879041 0.18318
507 1 0.813411 0.88157 0.188286
511 1 0.925883 0.875793 0.18816
492 1 0.24826 0.943618 0.187371
499 1 0.559283 0.877215 0.185106
504 1 0.621874 0.943932 0.182388
512 1 0.871152 0.941148 0.190454
484 1 0.996217 0.925459 0.188612
496 1 0.37868 0.936436 0.189623
500 1 0.501317 0.934932 0.188488
279 1 0.695103 0.0145819 0.193407
508 1 0.750678 0.938451 0.188439
517 1 0.127828 0.99568 0.252814
521 1 0.252287 0.99294 0.252434
525 1 0.372722 0.00400759 0.248764
529 1 0.501013 0.00163991 0.260685
530 1 0.56857 0.0637455 0.250321
541 1 0.87157 0.995622 0.261471
514 1 0.0690346 0.0621346 0.2478
518 1 0.180963 0.0613436 0.233333
553 1 0.244434 0.122018 0.246191
522 1 0.30982 0.0655045 0.244712
526 1 0.437671 0.0591295 0.247686
534 1 0.68595 0.0721739 0.249779
538 1 0.809268 0.0619948 0.252885
542 1 0.941532 0.0607085 0.256025
545 1 0.00163752 0.117357 0.250688
549 1 0.12753 0.123683 0.247661
557 1 0.373131 0.121825 0.249485
561 1 0.498568 0.126473 0.255515
565 1 0.62736 0.126929 0.247897
569 1 0.748548 0.126319 0.253438
573 1 0.873524 0.128544 0.257873
546 1 0.0527978 0.18558 0.241143
550 1 0.183386 0.189646 0.247851
554 1 0.305948 0.184144 0.245664
558 1 0.42844 0.190751 0.258422
562 1 0.564154 0.176814 0.259098
566 1 0.689313 0.189213 0.248865
570 1 0.81698 0.193036 0.254149
574 1 0.939281 0.191784 0.256727
581 1 0.125169 0.246401 0.254525
585 1 0.247876 0.243539 0.254535
589 1 0.370887 0.244546 0.247679
593 1 0.497722 0.256969 0.244885
597 1 0.624393 0.249167 0.257464
601 1 0.750374 0.252582 0.251619
605 1 0.882106 0.248372 0.251782
577 1 0.995051 0.251861 0.251722
578 1 0.0541825 0.311006 0.244513
582 1 0.185967 0.304573 0.256671
586 1 0.314097 0.316614 0.249924
590 1 0.433043 0.313939 0.243367
594 1 0.562891 0.309956 0.249594
598 1 0.686633 0.305571 0.249239
602 1 0.819881 0.31494 0.255525
606 1 0.935869 0.310863 0.251843
613 1 0.123905 0.368927 0.254334
617 1 0.24972 0.381235 0.254416
621 1 0.372081 0.38006 0.248453
625 1 0.50069 0.380401 0.243344
629 1 0.621132 0.383497 0.245139
633 1 0.748024 0.379147 0.259661
637 1 0.883308 0.378139 0.247133
609 1 0.988914 0.375617 0.252526
610 1 0.0658865 0.433193 0.250262
614 1 0.191544 0.439308 0.250885
618 1 0.310495 0.437985 0.25783
622 1 0.4294 0.440252 0.248506
626 1 0.562988 0.438392 0.247213
630 1 0.684199 0.441682 0.248173
634 1 0.812237 0.434046 0.248473
638 1 0.942988 0.438044 0.246222
645 1 0.129058 0.497986 0.250016
649 1 0.253582 0.50045 0.251086
653 1 0.380109 0.506127 0.243673
657 1 0.50315 0.496907 0.250805
661 1 0.625215 0.507914 0.256847
665 1 0.750611 0.499734 0.256244
669 1 0.883914 0.505259 0.251204
641 1 0.000304535 0.495415 0.249452
642 1 0.0625631 0.568466 0.251866
646 1 0.189418 0.554474 0.242946
650 1 0.314308 0.551855 0.250513
654 1 0.443165 0.562538 0.249073
658 1 0.561618 0.564413 0.248318
662 1 0.688986 0.567764 0.253004
666 1 0.819669 0.563721 0.253735
670 1 0.938021 0.569438 0.253209
677 1 0.128176 0.6193 0.242405
681 1 0.252483 0.62413 0.249513
685 1 0.380704 0.620003 0.242947
689 1 0.504168 0.625479 0.25218
693 1 0.625189 0.623613 0.247952
697 1 0.753889 0.626795 0.249091
701 1 0.874169 0.629726 0.257934
673 1 0.0081607 0.629945 0.243704
674 1 0.067353 0.693461 0.251937
678 1 0.191193 0.67815 0.241563
682 1 0.312126 0.679902 0.242238
686 1 0.437532 0.687281 0.25166
690 1 0.569493 0.692102 0.242082
694 1 0.686783 0.691909 0.246632
698 1 0.810887 0.687593 0.246394
702 1 0.93369 0.685546 0.244713
709 1 0.130336 0.754047 0.248855
713 1 0.258138 0.749984 0.25078
717 1 0.374846 0.749504 0.248241
721 1 0.494252 0.7531 0.244804
725 1 0.623807 0.761556 0.24238
729 1 0.754551 0.752586 0.247222
733 1 0.868954 0.748897 0.247679
705 1 0.999186 0.751826 0.248038
706 1 0.0632947 0.804815 0.245097
710 1 0.187153 0.816859 0.245948
714 1 0.308607 0.812307 0.241613
718 1 0.431309 0.808269 0.249146
722 1 0.56076 0.817033 0.247608
726 1 0.682913 0.819739 0.241409
730 1 0.810357 0.81073 0.255935
734 1 0.934508 0.809966 0.243863
737 1 0.999948 0.875307 0.25291
741 1 0.119951 0.872137 0.24148
745 1 0.249258 0.875213 0.241829
749 1 0.371303 0.864383 0.255709
757 1 0.617796 0.876045 0.243444
761 1 0.752322 0.875155 0.249993
765 1 0.864262 0.882722 0.256523
742 1 0.187148 0.938446 0.248814
746 1 0.317184 0.941318 0.253185
750 1 0.429846 0.938695 0.253333
753 1 0.495954 0.879075 0.247579
754 1 0.566488 0.942428 0.247583
758 1 0.686555 0.935105 0.249407
762 1 0.804655 0.939011 0.254357
513 1 0.992993 0.993025 0.254415
738 1 0.0591919 0.936131 0.251866
533 1 0.624122 0.00117023 0.246542
537 1 0.747684 0.00326654 0.252618
766 1 0.933181 0.939392 0.254603
515 1 0.0606534 0.999976 0.30727
524 1 0.24368 0.0588318 0.30465
523 1 0.30837 0.997444 0.311077
528 1 0.376416 0.0648489 0.308594
543 1 0.944759 0.990385 0.317856
516 1 0.998727 0.0539663 0.316983
520 1 0.119161 0.0665435 0.312317
532 1 0.488926 0.0639791 0.312507
536 1 0.623237 0.0548306 0.311913
540 1 0.741877 0.0735286 0.322252
544 1 0.868698 0.0677036 0.313997
547 1 0.0631553 0.12675 0.312484
551 1 0.186714 0.118975 0.310135
555 1 0.313773 0.12625 0.310843
559 1 0.435385 0.123991 0.315224
563 1 0.565879 0.121607 0.319963
567 1 0.687829 0.134 0.311914
571 1 0.811048 0.127014 0.314592
575 1 0.931187 0.125306 0.318371
552 1 0.125872 0.182261 0.31155
556 1 0.237598 0.181503 0.308234
560 1 0.370625 0.190707 0.317027
564 1 0.499663 0.19546 0.306846
568 1 0.625327 0.188903 0.311329
572 1 0.751193 0.18656 0.312058
576 1 0.876038 0.19364 0.31598
548 1 0.00288478 0.190458 0.311186
579 1 0.0592384 0.252053 0.310726
583 1 0.190358 0.249465 0.318419
587 1 0.30875 0.248295 0.309373
591 1 0.440338 0.257219 0.30952
595 1 0.562172 0.251665 0.311315
599 1 0.686584 0.246051 0.311936
603 1 0.815295 0.250432 0.314369
607 1 0.93955 0.252498 0.31359
584 1 0.114196 0.312299 0.31421
588 1 0.252586 0.317289 0.316837
592 1 0.380954 0.313057 0.308261
596 1 0.499988 0.311088 0.313305
600 1 0.620025 0.316145 0.31104
604 1 0.745517 0.304555 0.316184
608 1 0.874029 0.31421 0.314415
580 1 0.994451 0.312993 0.315334
611 1 0.0570979 0.371117 0.31265
615 1 0.191051 0.376391 0.314657
619 1 0.318302 0.376607 0.315448
623 1 0.436027 0.376893 0.306964
627 1 0.554403 0.374763 0.303432
631 1 0.681104 0.371204 0.310492
635 1 0.816369 0.376764 0.323079
639 1 0.943615 0.372804 0.320558
612 1 0.00323992 0.434619 0.309641
616 1 0.131196 0.437005 0.308727
620 1 0.245935 0.439141 0.316635
624 1 0.375988 0.435466 0.314127
628 1 0.501441 0.434636 0.310588
632 1 0.624106 0.44136 0.306623
636 1 0.75578 0.437951 0.318851
640 1 0.881997 0.426112 0.315781
643 1 0.0631088 0.502113 0.303262
647 1 0.192236 0.503813 0.31484
651 1 0.310849 0.500747 0.318005
655 1 0.437985 0.496439 0.308365
659 1 0.561146 0.496347 0.312216
663 1 0.688608 0.504683 0.312182
667 1 0.833521 0.497001 0.312607
671 1 0.941349 0.494849 0.31007
648 1 0.130226 0.559724 0.3081
652 1 0.250931 0.563272 0.318405
656 1 0.383785 0.561623 0.30875
660 1 0.50529 0.55947 0.315192
664 1 0.623172 0.562965 0.313106
668 1 0.758678 0.563875 0.311054
672 1 0.883453 0.568458 0.317983
644 1 0.998282 0.562085 0.315968
675 1 0.0654638 0.633573 0.307976
679 1 0.188838 0.61726 0.307158
683 1 0.310816 0.626538 0.307691
687 1 0.439977 0.622389 0.306242
691 1 0.56218 0.626607 0.312073
695 1 0.683403 0.630415 0.310504
699 1 0.816781 0.622535 0.316635
703 1 0.942257 0.627549 0.314966
676 1 0.00194031 0.685062 0.304598
680 1 0.133088 0.682166 0.300744
684 1 0.251584 0.683688 0.30735
688 1 0.371133 0.685 0.31013
692 1 0.49713 0.68674 0.308087
696 1 0.623817 0.684672 0.303584
700 1 0.749003 0.692149 0.302631
704 1 0.870853 0.695125 0.314969
707 1 0.063442 0.751768 0.309837
711 1 0.190625 0.744207 0.304803
715 1 0.31825 0.751463 0.310574
719 1 0.438102 0.749639 0.311906
723 1 0.565312 0.757199 0.309765
727 1 0.688748 0.745921 0.314913
731 1 0.81545 0.752208 0.320026
735 1 0.936422 0.750747 0.319575
712 1 0.121664 0.810535 0.304634
716 1 0.247025 0.819682 0.306419
720 1 0.37797 0.811073 0.317775
724 1 0.496249 0.816825 0.304988
728 1 0.626496 0.814679 0.309608
732 1 0.748874 0.810825 0.314182
736 1 0.872642 0.80969 0.316741
708 1 0.999618 0.812344 0.305506
739 1 0.0621065 0.874154 0.312711
743 1 0.182529 0.877545 0.308565
747 1 0.302479 0.878177 0.313151
751 1 0.43497 0.872731 0.303387
755 1 0.561201 0.877761 0.310492
759 1 0.689407 0.882938 0.311158
763 1 0.814571 0.873263 0.324501
767 1 0.932888 0.876789 0.312574
740 1 0.998237 0.934159 0.311418
744 1 0.121523 0.940043 0.314929
748 1 0.247038 0.939797 0.318177
752 1 0.366448 0.929862 0.315067
756 1 0.490153 0.933188 0.310171
760 1 0.623127 0.934603 0.310219
764 1 0.754657 0.935624 0.33004
768 1 0.871484 0.937712 0.316308
519 1 0.180947 0.00503065 0.313871
527 1 0.428119 0.99207 0.31676
531 1 0.563451 0.993105 0.313721
535 1 0.684837 0.000710113 0.312068
539 1 0.807539 0.00267363 0.314926
773 1 0.121665 0.0059221 0.372767
793 1 0.744439 0.00431082 0.381791
770 1 0.060221 0.0618278 0.369923
774 1 0.185116 0.062489 0.383969
778 1 0.314013 0.0591302 0.369546
782 1 0.431626 0.0639297 0.374127
786 1 0.561016 0.0595981 0.374943
790 1 0.686582 0.0616422 0.387129
794 1 0.81184 0.0603851 0.376137
798 1 0.940404 0.0614186 0.376739
805 1 0.116092 0.122893 0.380427
809 1 0.250691 0.118382 0.368729
813 1 0.378583 0.127978 0.37756
817 1 0.499858 0.121558 0.375437
821 1 0.626904 0.120091 0.37242
825 1 0.749729 0.125808 0.387636
829 1 0.87865 0.11021 0.380643
801 1 0.9992 0.125028 0.368276
802 1 0.0620882 0.188849 0.372046
806 1 0.184588 0.178483 0.371195
810 1 0.31109 0.180318 0.374067
814 1 0.440488 0.186309 0.370964
818 1 0.55778 0.18217 0.374019
822 1 0.688858 0.189959 0.375273
826 1 0.806048 0.188048 0.382338
830 1 0.936021 0.192533 0.373938
837 1 0.125137 0.241772 0.373755
841 1 0.244748 0.241759 0.3817
845 1 0.375802 0.251954 0.371985
849 1 0.50393 0.25353 0.373465
853 1 0.614395 0.254838 0.373876
857 1 0.751988 0.250564 0.382404
861 1 0.876319 0.252073 0.379058
833 1 0.997419 0.253901 0.374488
834 1 0.0597978 0.30779 0.376602
838 1 0.186061 0.31552 0.370742
842 1 0.304666 0.30306 0.386158
846 1 0.438952 0.306123 0.3771
850 1 0.559214 0.315516 0.382548
854 1 0.681184 0.308604 0.372482
858 1 0.810854 0.310993 0.372772
862 1 0.931216 0.310335 0.374773
869 1 0.123561 0.373918 0.365997
873 1 0.248708 0.370627 0.378454
877 1 0.380198 0.370643 0.366922
881 1 0.49675 0.372677 0.376647
885 1 0.624974 0.37721 0.375133
889 1 0.752734 0.377554 0.37401
893 1 0.879831 0.374379 0.379164
865 1 0.00510507 0.374636 0.3755
866 1 0.0659298 0.441441 0.369347
870 1 0.181029 0.435886 0.374635
874 1 0.312663 0.440944 0.373649
878 1 0.434483 0.435752 0.369279
882 1 0.555622 0.433974 0.376927
886 1 0.684448 0.441808 0.37496
890 1 0.821749 0.445086 0.377416
894 1 0.941751 0.441374 0.371741
897 1 0.00475464 0.50114 0.369065
901 1 0.125864 0.500458 0.371534
905 1 0.247679 0.499689 0.374784
909 1 0.374922 0.499919 0.373276
913 1 0.499691 0.492167 0.373329
917 1 0.6182 0.496271 0.373067
921 1 0.748305 0.505397 0.367917
925 1 0.884061 0.506672 0.378115
898 1 0.0670277 0.559374 0.365097
902 1 0.180959 0.56412 0.373852
906 1 0.310793 0.557291 0.374566
910 1 0.440407 0.558504 0.370244
914 1 0.56027 0.562912 0.376574
918 1 0.689369 0.577032 0.372628
922 1 0.818986 0.561367 0.372842
926 1 0.94115 0.564619 0.386071
929 1 0.00327235 0.623383 0.379344
933 1 0.127885 0.624703 0.36659
937 1 0.252716 0.628472 0.376916
941 1 0.363624 0.620565 0.375186
945 1 0.494285 0.626278 0.379271
949 1 0.621675 0.638405 0.380981
953 1 0.754663 0.624366 0.370127
957 1 0.877039 0.627955 0.371525
930 1 0.0661414 0.686736 0.374658
934 1 0.185964 0.684024 0.366715
938 1 0.310251 0.693784 0.37542
942 1 0.431398 0.687986 0.370112
946 1 0.552031 0.687657 0.372315
950 1 0.688785 0.684045 0.373028
954 1 0.813254 0.681892 0.378879
958 1 0.938041 0.687107 0.375538
961 1 0.00457796 0.740206 0.368072
965 1 0.131298 0.746756 0.367267
969 1 0.251922 0.752689 0.370306
973 1 0.3689 0.747288 0.368115
977 1 0.498227 0.750787 0.37276
981 1 0.621064 0.737547 0.36571
985 1 0.752144 0.748235 0.389933
989 1 0.876024 0.743359 0.37962
962 1 0.0606187 0.813918 0.369465
966 1 0.185112 0.810234 0.365939
970 1 0.310132 0.811764 0.375698
974 1 0.432974 0.81075 0.37485
978 1 0.560423 0.814153 0.371632
982 1 0.684066 0.807826 0.375599
986 1 0.813048 0.810705 0.382668
990 1 0.940018 0.802676 0.384943
997 1 0.121652 0.869543 0.370854
1001 1 0.240421 0.878525 0.375091
1005 1 0.367075 0.870167 0.380361
1009 1 0.497163 0.874571 0.375133
1013 1 0.624313 0.870532 0.365445
1017 1 0.748993 0.872648 0.382072
1021 1 0.879114 0.878328 0.37682
993 1 0.991342 0.876534 0.379586
994 1 0.0569557 0.927378 0.369617
998 1 0.186267 0.9444 0.380256
1002 1 0.308275 0.936802 0.378131
1006 1 0.431471 0.930229 0.375415
1010 1 0.569048 0.938194 0.377049
1014 1 0.685434 0.93884 0.375779
1022 1 0.932033 0.938115 0.38291
769 1 1.00065 0.997635 0.378327
777 1 0.249618 0.00226828 0.380398
781 1 0.368281 0.993113 0.374436
785 1 0.498574 0.993367 0.372548
789 1 0.623932 0.000330433 0.37767
1018 1 0.819144 0.935786 0.380877
797 1 0.878317 0.00463545 0.365882
772 1 0.00811851 0.0594757 0.439944
771 1 0.0648318 0.00135049 0.439501
780 1 0.254003 0.0652074 0.433623
792 1 0.619431 0.0577081 0.436326
795 1 0.803512 0.0020034 0.442799
799 1 0.938109 0.997931 0.435304
776 1 0.125816 0.0633705 0.441155
784 1 0.374958 0.0690544 0.434202
788 1 0.497871 0.055117 0.430852
796 1 0.750056 0.0651542 0.441806
800 1 0.867063 0.0494699 0.436217
803 1 0.0637065 0.119813 0.43955
807 1 0.188201 0.1224 0.436796
811 1 0.312311 0.126505 0.43871
815 1 0.438197 0.123098 0.437681
819 1 0.569404 0.122563 0.437559
823 1 0.68751 0.12972 0.441412
827 1 0.814514 0.117277 0.438409
831 1 0.938561 0.120684 0.437098
808 1 0.133827 0.183123 0.438262
812 1 0.242968 0.183676 0.436589
816 1 0.380028 0.178968 0.439846
820 1 0.495328 0.182036 0.439728
824 1 0.62355 0.183987 0.432981
828 1 0.745166 0.187745 0.438167
832 1 0.877395 0.179214 0.436172
804 1 0.99802 0.184078 0.429332
835 1 0.0632293 0.256199 0.443556
839 1 0.190199 0.249685 0.437185
843 1 0.31412 0.237832 0.436136
847 1 0.435247 0.244168 0.435306
851 1 0.558735 0.244877 0.443004
855 1 0.691399 0.255134 0.438331
859 1 0.816447 0.253562 0.435971
863 1 0.938637 0.244166 0.438244
836 1 0.000325693 0.310219 0.4396
840 1 0.125386 0.312603 0.434003
844 1 0.241991 0.310014 0.44012
848 1 0.379296 0.308596 0.439418
852 1 0.496763 0.300493 0.438135
856 1 0.629132 0.315554 0.433252
860 1 0.751578 0.318435 0.432912
864 1 0.87326 0.317142 0.435058
867 1 0.0684858 0.370541 0.429012
871 1 0.181022 0.377004 0.433194
875 1 0.320971 0.376168 0.430751
879 1 0.433278 0.37587 0.430377
883 1 0.562984 0.373979 0.438784
887 1 0.688486 0.380349 0.439208
891 1 0.811953 0.379598 0.434449
895 1 0.93924 0.381427 0.437237
868 1 0.00516707 0.435521 0.437147
872 1 0.122996 0.440302 0.44049
876 1 0.246121 0.429619 0.432079
880 1 0.375709 0.441933 0.433683
884 1 0.496865 0.434685 0.442416
888 1 0.623368 0.438224 0.432301
892 1 0.75226 0.447756 0.429264
896 1 0.87838 0.439114 0.439669
899 1 0.0616193 0.498281 0.433154
903 1 0.19267 0.496816 0.437511
907 1 0.306152 0.499662 0.43546
911 1 0.43723 0.495572 0.435956
915 1 0.560224 0.502389 0.441002
919 1 0.687189 0.508499 0.427126
923 1 0.817953 0.507402 0.448396
927 1 0.940948 0.496721 0.43929
900 1 0.00336111 0.563672 0.446156
904 1 0.125003 0.564401 0.437012