LAMMPS (15 Sep 2022)
OMP_NUM_THREADS environment is not set. Defaulting to 1 thread. (src/comm.cpp:98)
  using 1 OpenMP thread(s) per MPI task
# 3d WCA system, random initial configuration

#variable density equal 0.6
variable initial_temperature equal 3.0
variable final_temperature equal 0.1
variable dt equal 0.005
variable tau equal 100*${dt}
variable tau equal 100*0.005
variable thermo_time equal 50000*${dt}
variable thermo_time equal 50000*0.005
variable equil_steps equal 50000
variable run_steps equal 100000

units           lj
atom_style      atomic
dimension       3                # 修改1：将维度改为3

lattice         fcc ${density}   # 修改2：将晶格类型改为 fcc
lattice         fcc 1.3   
Lattice spacing in x,y,z = 1.4544726 1.4544726 1.4544726
region          box block 0 8 0 8 0 8    # 修改3：调整区域大小为 8x8x8

# number of atom types
create_box      1 box
Created orthogonal box = (0 0 0) to (11.635781 11.635781 11.635781)
  1 by 1 by 1 MPI processor grid
create_atoms    1 box
Created 2048 atoms
  using lattice units in orthogonal box = (0 0 0) to (11.635781 11.635781 11.635781)
  create_atoms CPU = 0.000 seconds
mass 1 1.0

velocity all create ${initial_temperature} 12345
velocity all create 3 12345

pair_style      lj/cut 1.0
#type_1 type_2 epsilon sigma cutoff
pair_coeff      1 1 10.0 0.89089871814 1.0
pair_modify shift yes

timestep ${dt}
timestep 0.005
thermo ${thermo_time}
thermo 250

fix 1 all nvt temp ${initial_temperature} ${initial_temperature} ${tau}
fix 1 all nvt temp 3 ${initial_temperature} ${tau}
fix 1 all nvt temp 3 3 ${tau}
fix 1 all nvt temp 3 3 0.5
run ${equil_steps}
run 50000
Generated 0 of 0 mixed pair_coeff terms from geometric mixing rule
Neighbor list info ...
  update: every = 1 steps, delay = 0 steps, check = yes
  max neighbors/atom: 2000, page size: 100000
  master list distance cutoff = 1.3
  ghost atom cutoff = 1.3
  binsize = 0.65, bins = 18 18 18
  1 neighbor lists, perpetual/occasional/extra = 1 0 0
  (1) pair lj/cut, perpetual
      attributes: half, newton on
      pair build: half/bin/atomonly/newton
      stencil: half/bin/3d
      bin: standard
Per MPI rank memory allocation (min/avg/max) = 3.156 | 3.156 | 3.156 Mbytes
   Step          Temp          E_pair         E_mol          TotEng         Press     
         0   3              0              0              4.4978027      3.8980957    
       250   2.436382       2.1780982      0              5.8308868      42.518578    
       500   2.9882655      2.8234454      0              7.303655       51.145936    
       750   2.9929927      2.7246474      0              7.2119444      49.738621    
      1000   2.9731619      2.6251502      0              7.0827154      48.569118    
      1250   2.9996231      2.8451043      0              7.342342       51.154112    
      1500   2.8656333      2.7270587      0              7.0234098      49.68522     
      1750   3.0445437      2.7945916      0              7.3591772      50.375964    
      2000   2.947923       2.6319799      0              7.0517053      48.657321    
      2250   3.0766219      2.6751554      0              7.2878349      49.438594    
      2500   3.0001615      2.6375021      0              7.135547       48.636409    
      2750   3.0280738      2.6469862      0              7.1868791      49.036003    
      3000   2.9990135      2.7325846      0              7.2289084      49.701287    
      3250   2.9867482      2.6530217      0              7.1309565      49.085469    
      3500   3.052237       2.7140458      0              7.2901658      49.483589    
      3750   2.8671533      2.8457857      0              7.1444157      51.156496    
      4000   3.1026482      2.7738753      0              7.4255752      50.448359    
      4250   2.9761074      2.6878705      0              7.1498518      49.157939    
      4500   3.0511455      2.7723591      0              7.3468427      50.411893    
      4750   2.9135659      2.7701212      0              7.1383361      49.933049    
      5000   3.0613283      2.6622788      0              7.2520291      49.259157    
      5250   3.0182189      2.6801902      0              7.2053078      49.376193    
      5500   3.029116       2.6358817      0              7.1773371      48.992459    
      5750   3.0075721      2.7178557      0              7.2270111      49.534723    
      6000   2.9463616      2.6606298      0              7.0780141      48.845597    
      6250   3.0285635      2.7460292      0              7.2866563      50.243993    
      6500   2.9157226      2.6923516      0              7.0638         49.255263    
      6750   2.9891617      2.7158011      0              7.1973544      49.922817    
      7000   2.9502869      2.7639283      0              7.1871978      50.187957    
      7250   3.0145817      2.5894767      0              7.1091414      48.377644    
      7500   3.0935541      2.6662159      0              7.3042813      48.971343    
      7750   2.9283975      2.7109791      0              7.1014306      49.697075    
      8000   3.0465864      2.7168446      0              7.2844927      49.956179    
      8250   2.868103       2.724431       0              7.0244848      49.652803    
      8500   3.0149827      2.7528216      0              7.2730873      49.909696    
      8750   2.9480486      2.7103377      0              7.1302514      49.767851    
      9000   2.9681136      2.575127       0              7.0251234      47.959536    
      9250   3.0537906      2.687397       0              7.2658462      49.33578     
      9500   2.9604585      2.5650376      0              7.003557       48.056713    
      9750   3.0595361      2.6987519      0              7.2858151      49.641666    
     10000   2.9562099      2.6526626      0              7.0848123      48.840778    
     10250   3.1006896      2.6910101      0              7.3397734      49.427333    
     10500   2.9760095      2.6842936      0              7.1461281      49.21046     
     10750   3.0683671      2.8162066      0              7.4165099      51.0527      
     11000   2.9206045      2.7875717      0              7.1663393      50.418473    
     11250   3.001961       2.7607347      0              7.2614775      50.180179    
     11500   3.0177455      2.702821       0              7.227229       49.479601    
     11750   3.0171554      2.6621234      0              7.1856467      48.968444    
     12000   3.0457235      2.7916055      0              7.3579599      50.453171    
     12250   2.9593235      2.6680109      0              7.1048286      48.814431    
     12500   3.0315825      2.7536041      0              7.2987574      50.07692     
     12750   2.9783835      2.5995333      0              7.0649271      48.323141    
     13000   3.0424936      2.7024855      0              7.2639974      49.531204    
     13250   2.8849404      2.6590249      0              6.9843225      48.884625    
     13500   3.0615194      2.6312905      0              7.2213273      48.67443     
     13750   2.950293       2.6776328      0              7.1009115      49.485546    
     14000   3.0806104      2.6016592      0              7.2203185      48.666027    
     14250   2.972413       2.7206519      0              7.1770943      49.961112    
     14500   2.8930255      2.5953949      0              6.9328142      48.060347    
     14750   3.0561875      2.6734503      0              7.2554931      49.362364    
     15000   2.9949638      2.5410577      0              7.0313097      47.572501    
     15250   3.0273672      2.7673923      0              7.3062257      50.195193    
     15500   2.9822731      2.6146159      0              7.0858412      48.568155    
     15750   3.0993473      2.7407361      0              7.387487       50.250728    
     16000   3.0285233      2.6017178      0              7.1422846      48.328038    
     16250   3.0681252      2.7399868      0              7.3399275      49.952144    
     16500   2.9516714      2.8153148      0              7.2406601      50.609966    
     16750   2.9975128      2.6464058      0              7.1404796      48.925328    
     17000   3.0911842      2.7334063      0              7.3679186      49.787192    
     17250   2.9842398      2.6576427      0              7.1318166      49.287269    
     17500   3.0910958      2.7260773      0              7.3604571      50.013296    
     17750   3.0241136      2.6550725      0              7.189028       48.952256    
     18000   2.9255453      2.8204316      0              7.2066068      50.921867    
     18250   3.0420443      2.6720131      0              7.2328516      49.401638    
     18500   3.0054354      2.6691066      0              7.1750585      48.994724    
     18750   3.0205561      2.6542777      0              7.1828994      49.093302    
     19000   2.966498       2.7155083      0              7.1630827      49.240574    
     19250   3.0347584      2.6633739      0              7.2132888      49.096099    
     19500   2.9094298      2.6559829      0              7.0179967      49.111346    
     19750   2.9933402      2.7525708      0              7.2403888      49.926588    
     20000   2.9215758      2.6647807      0              7.0450046      49.1843      
     20250   3.0600674      2.6646078      0              7.2524676      49.276867    
     20500   2.9949744      2.6629077      0              7.1531758      49.265072    
     20750   2.9171441      2.6188279      0              6.9924075      48.611807    
     21000   2.9793233      2.7998789      0              7.2666817      50.897229    
     21250   2.9265445      2.6026862      0              6.9903595      48.433441    
     21500   3.0367508      2.7488961      0              7.3017982      49.894597    
     21750   2.901135       2.7218044      0              7.071382       49.765543    
     22000   3.0364776      2.809079       0              7.3615714      50.683249    
     22250   3.0103431      2.622796       0              7.1361059      48.854959    
     22500   3.0801944      2.8229951      0              7.4410307      50.982612    
     22750   3.0024459      2.7151824      0              7.2166521      49.735507    
     23000   2.9892802      2.6497823      0              7.1315133      49.041712    
     23250   3.0950826      2.7083641      0              7.3487211      50.089037    
     23500   3.0353634      2.546315       0              7.097137       47.503704    
     23750   3.017047       2.7498687      0              7.2732294      49.990024    
     24000   3.011504       2.4831741      0              6.9982244      46.738119    
     24250   3.0109171      2.746178       0              7.2603484      50.077681    
     24500   2.8970662      2.6105986      0              6.9540759      48.080845    
     24750   3.0120512      2.6629246      0              7.1787954      49.271243    
     25000   2.9820491      2.7425334      0              7.2134229      49.862594    
     25250   2.9135833      2.6759329      0              7.0441739      48.994973    
     25500   3.0295863      2.7735837      0              7.3157442      50.170031    
     25750   2.9878022      2.64028        0              7.1197951      48.981216    
     26000   3.061364       2.6156789      0              7.2054826      48.792176    
     26250   3.0075309      2.6666787      0              7.1757722      49.182623    
     26500   2.9715143      2.7052172      0              7.1603122      49.865622    
     26750   2.9560927      2.814747       0              7.246721       50.569856    
     27000   2.9681066      2.7070563      0              7.1570423      49.71579     
     27250   3.071391       2.7099459      0              7.3147829      49.633193    
     27500   2.9807877      2.5839485      0              7.0529468      47.999233    
     27750   3.0156939      2.8068178      0              7.3281499      50.640631    
     28000   2.9165619      2.7948585      0              7.1675652      50.805136    
     28250   3.067533       2.6739708      0              7.2730235      49.283077    
     28500   3.0048124      2.6685451      0              7.173563       49.213475    
     28750   3.0088749      2.6768754      0              7.1879839      49.568578    
     29000   3.1372768      2.7875396      0              7.4911569      50.93757     
     29250   3.0260403      2.6111497      0              7.1479937      48.377524    
     29500   3.0485727      2.7167287      0              7.2873549      49.993804    
     29750   2.9843139      2.6558531      0              7.1301381      48.819139    
     30000   2.9692429      2.7936283      0              7.245318       50.397308    
     30250   3.0251474      2.549122       0              7.0846275      47.88107     
     30500   3.0032143      2.7269528      0              7.2295747      49.992279    
     30750   2.9961987      2.7033415      0              7.1954451      50.034781    
     31000   2.9601999      2.7235451      0              7.1616768      49.593621    
     31250   2.9961016      2.7745795      0              7.2665375      50.445721    
     31500   3.0521995      2.4910849      0              7.0671487      47.003348    
     31750   3.0162453      2.8047382      0              7.3268971      50.783459    
     32000   2.9312608      2.7401315      0              7.1348758      49.888399    
     32250   3.1028518      2.7799852      0              7.4319904      50.529432    
     32500   3.0098965      2.7220438      0              7.2346841      49.925634    
     32750   2.9684267      2.684662       0              7.1351279      49.374252    
     33000   3.0786735      2.7179844      0              7.3337397      49.82041     
     33250   2.9610502      2.7157126      0              7.1551191      49.569528    
     33500   3.0644193      2.743256       0              7.3376406      49.912795    
     33750   2.9976096      2.5867238      0              7.0809427      48.381542    
     34000   3.0134957      2.7871234      0              7.3051599      50.766379    
     34250   2.9134475      2.6227116      0              6.990749       48.469227    
     34500   3.0671066      2.686051       0              7.2844645      49.337235    
     34750   2.965019       2.5862135      0              7.0315703      47.964087    
     35000   2.9978224      2.6986084      0              7.1931463      49.359144    
     35250   2.9564148      2.7677543      0              7.2002112      50.345116    
     35500   2.9403371      2.71958        0              7.1279321      49.586518    
     35750   3.0101259      2.817314       0              7.3302981      50.772478    
     36000   2.9620699      2.6131684      0              7.0541038      48.373325    
     36250   3.02078        2.7273271      0              7.2562845      49.811241    
     36500   3.0716732      2.6034109      0              7.208671       48.562639    
     36750   2.9591339      2.7200547      0              7.1565882      49.631475    
     37000   3.0083209      2.6688382      0              7.1791162      48.952971    
     37250   2.9996845      2.7427797      0              7.2401094      49.947963    
     37500   2.9015815      2.7889507      0              7.1391977      50.544409    
     37750   2.9759867      2.7709233      0              7.2327237      50.353183    
     38000   2.9855551      2.6861801      0              7.1623261      49.101053    
     38250   2.9989057      2.7459718      0              7.2421338      49.859472    
     38500   2.9416266      2.6419742      0              7.0522596      48.834453    
     38750   3.0657822      2.7143094      0              7.3107373      49.690314    
     39000   2.9333645      2.7233747      0              7.1212729      49.592664    
     39250   3.0105162      2.8861851      0              7.3997544      51.961818    
     39500   3.0246829      2.6074234      0              7.1422323      48.619843    
     39750   3.058369       2.7225111      0              7.3078245      49.56839     
     40000   2.996526       2.7111545      0              7.2037488      49.637583    
     40250   2.9926066      2.7070966      0              7.1938146      49.927313    
     40500   2.9723637      2.7870937      0              7.2434623      50.285117    
     40750   2.9043941      2.7027974      0              7.0572613      49.64783     
     41000   3.0155103      2.7614126      0              7.2824694      50.012045    
     41250   2.9949371      2.6281611      0              7.1183733      48.590444    
     41500   3.0641864      2.7911665      0              7.3852018      50.884369    
     41750   3.0217151      2.6000137      0              7.1303732      48.310502    
     42000   3.0535182      2.8354889      0              7.4135297      50.939744    
     42250   3.0129548      2.6514599      0              7.1686853      49.129104    
     42500   3.0148673      2.7255901      0              7.2456829      49.741195    
     42750   2.9678401      2.7621366      0              7.2117231      50.090668    
     43000   3.0042599      2.6675268      0              7.1717163      49.109649    
     43250   3.0684863      2.7498977      0              7.3503797      50.120698    
     43500   2.9097972      2.7165839      0              7.0791485      49.579917    
     43750   3.0591335      2.7264906      0              7.3129503      50.004461    
     44000   2.9232328      2.6370443      0              7.0197524      48.916714    
     44250   3.0285042      2.7324128      0              7.2729509      50.05977     
     44500   2.9523536      2.5954858      0              7.0218538      48.290235    
     44750   2.9850766      2.7050568      0              7.1804853      49.400394    
     45000   3.0113302      2.6866655      0              7.2014552      49.152401    
     45250   2.9279921      2.6532118      0              7.0430554      49.01491     
     45500   3.0402039      2.7062868      0              7.2643659      49.881045    
     45750   2.9786686      2.6078116      0              7.0736329      48.360842    
     46000   3.0644584      2.6898567      0              7.2842999      49.322034    
     46250   2.9801005      2.6180741      0              7.086042       48.339703    
     46500   2.991149       2.6952669      0              7.1797996      49.282472    
     46750   2.9731606      2.7427841      0              7.2003474      49.380272    
     47000   2.956058       2.5705408      0              7.0024627      47.460879    
     47250   2.9916158      2.7862998      0              7.2715324      50.525529    
     47500   2.9241472      2.6422712      0              7.0263502      49.043123    
     47750   3.0677533      2.646644       0              7.246027       49.143996    
     48000   2.9958504      2.6355295      0              7.1271108      48.625351    
     48250   3.0527564      2.7149092      0              7.291808       49.707552    
     48500   2.9753201      2.7151239      0              7.1759248      49.782619    
     48750   3.0129335      2.6954193      0              7.2126128      49.421646    
     49000   3.0089144      2.7534756      0              7.2646434      50.179359    
     49250   3.0307132      2.6090206      0              7.1528707      48.549827    
     49500   3.0421882      2.7801995      0              7.3412536      50.533194    
     49750   2.9808817      2.6177104      0              7.0868496      48.662259    
     50000   3.0660346      2.6496809      0              7.2464871      48.977652    
Loop time of 18.1025 on 1 procs for 50000 steps with 2048 atoms

Performance: 1193205.306 tau/day, 2762.049 timesteps/s, 5.657 Matom-step/s
99.7% CPU use with 1 MPI tasks x 1 OpenMP threads

MPI task timing breakdown:
Section |  min time  |  avg time  |  max time  |%varavg| %total
---------------------------------------------------------------
Pair    | 7.1669     | 7.1669     | 7.1669     |   0.0 | 39.59
Neigh   | 8.5876     | 8.5876     | 8.5876     |   0.0 | 47.44
Comm    | 0.66612    | 0.66612    | 0.66612    |   0.0 |  3.68
Output  | 0.0073552  | 0.0073552  | 0.0073552  |   0.0 |  0.04
Modify  | 1.2769     | 1.2769     | 1.2769     |   0.0 |  7.05
Other   |            | 0.3977     |            |       |  2.20

Nlocal:           2048 ave        2048 max        2048 min
Histogram: 1 0 0 0 0 0 0 0 0 0
Nghost:           1395 ave        1395 max        1395 min
Histogram: 1 0 0 0 0 0 0 0 0 0
Neighs:          12553 ave       12553 max       12553 min
Histogram: 1 0 0 0 0 0 0 0 0 0

Total # of neighbors = 12553
Ave neighs/atom = 6.1293945
Neighbor list builds = 10670
Dangerous builds = 0

unfix 1
dump           1 all atom ${run_steps} 3dWCA_T${final_temperature}_d${density}_N${run_steps}.lammpstrj   # 修改4：将文件名前缀改为3d
dump           1 all atom 100000 3dWCA_T${final_temperature}_d${density}_N${run_steps}.lammpstrj   
dump           1 all atom 100000 3dWCA_T0.1_d${density}_N${run_steps}.lammpstrj   
dump           1 all atom 100000 3dWCA_T0.1_d1.3_N${run_steps}.lammpstrj   
dump           1 all atom 100000 3dWCA_T0.1_d1.3_N100000.lammpstrj   
dump           2 all dcd ${thermo_time} 3dWCA_T${final_temperature}_d${density}_N${run_steps}.dcd        # 修改4：将文件名前缀改为3d
dump           2 all dcd 250 3dWCA_T${final_temperature}_d${density}_N${run_steps}.dcd        
dump           2 all dcd 250 3dWCA_T0.1_d${density}_N${run_steps}.dcd        
dump           2 all dcd 250 3dWCA_T0.1_d1.3_N${run_steps}.dcd        
dump           2 all dcd 250 3dWCA_T0.1_d1.3_N100000.dcd        
fix 1 all nvt temp ${initial_temperature} ${final_temperature} ${tau}
fix 1 all nvt temp 3 ${final_temperature} ${tau}
fix 1 all nvt temp 3 0.1 ${tau}
fix 1 all nvt temp 3 0.1 0.5

run ${run_steps}
run 100000
Generated 0 of 0 mixed pair_coeff terms from geometric mixing rule
Per MPI rank memory allocation (min/avg/max) = 3.297 | 3.297 | 3.297 Mbytes
   Step          Temp          E_pair         E_mol          TotEng         Press     
     50000   3.0660346      2.6496809      0              7.2464871      48.977652    
     50250   2.9372403      2.5616045      0              6.9653136      47.839458    
     50500   2.9540304      2.7678119      0              7.1966938      50.360036    
     50750   2.9452865      2.6521175      0              7.06789        48.969204    
     51000   2.9833735      2.7012671      0              7.1741423      49.434971    
     51250   2.9184967      2.70448        0              7.0800874      49.652224    
     51500   2.9927877      2.5954704      0              7.0824599      48.257243    
     51750   3.0187623      2.5905376      0              7.11647        48.090252    
     52000   2.9393103      2.5456717      0              6.9524844      47.62669     
     52250   2.9869751      2.6751492      0              7.153424       49.170739    
     52500   2.9314451      2.6092344      0              7.004255       48.627713    
     52750   2.8366519      2.6389297      0              6.89183        48.642141    
     53000   2.9470379      2.6772924      0              7.0956908      48.778523    
     53250   2.7894737      2.651211       0              6.8333784      48.189503    
     53500   2.8593638      2.7038443      0              6.9907958      49.507999    
     53750   2.8643949      2.5071607      0              6.8016551      47.13803     
     54000   2.9586212      2.535657       0              6.9714219      47.228206    
     54250   2.8790006      2.5768205      0              6.8932128      48.0908      
     54500   2.833596       2.6195412      0              6.8678598      48.051308    
     54750   2.8130885      2.5919251      0              6.8094975      48.237412    
     55000   2.8708881      2.5222088      0              6.8264383      47.790086    
     55250   2.8222911      2.5923373      0              6.8237068      48.463651    
     55500   2.7999863      2.5826383      0              6.7805669      47.860259    
     55750   2.860079       2.5538965      0              6.8419203      47.657361    
     56000   2.7665635      2.5418558      0              6.6896747      47.572663    
     56250   2.8226129      2.575909       0              6.807761       47.816076    
     56500   2.8081739      2.4780321      0              6.6882361      46.909561    
     56750   2.786182       2.4864278      0              6.6636601      46.917049    
     57000   2.8218537      2.560319       0              6.7910328      47.689504    
     57250   2.7578195      2.4328859      0              6.5675953      45.845182    
     57500   2.8618042      2.4148439      0              6.7054542      46.033597    
     57750   2.821796       2.3649782      0              6.5956054      45.413865    
     58000   2.7238626      2.3652532      0              6.4490521      45.488415    
     58250   2.8078285      2.4638904      0              6.6735767      46.662012    
     58500   2.7245371      2.3692727      0              6.4540829      45.296422    
     58750   2.7587063      2.5563313      0              6.6923703      47.381042    
     59000   2.7306207      2.3900196      0              6.4839506      45.437298    
     59250   2.8402423      2.5112457      0              6.7695289      47.021457    
     59500   2.678758       2.4866072      0              6.5027821      46.845138    
     59750   2.7659577      2.3152181      0              6.4621288      44.863773    
     60000   2.770223       2.4417142      0              6.5950197      46.173672    
     60250   2.6580263      2.3739232      0              6.3590159      45.59733     
     60500   2.7312415      2.4476617      0              6.5425236      46.192953    
     60750   2.6418652      2.3246501      0              6.2855129      44.592414    
     61000   2.7492926      2.3896091      0              6.5115344      45.774871    
     61250   2.6581485      2.2628887      0              6.2481645      44.026112    
     61500   2.7013396      2.3712396      0              6.4212704      45.358532    
     61750   2.5943482      2.331001       0              6.2206232      44.74067     
     62000   2.6452597      2.4061658      0              6.3721179      45.650285    
     62250   2.7099956      2.2451104      0              6.3081189      43.791231    
     62500   2.5693319      2.2653461      0              6.1174621      43.917098    
     62750   2.6306869      2.3980975      0              6.342201       45.795423    
     63000   2.5538495      2.3320451      0              6.1609489      44.718422    
     63250   2.6936664      2.3343513      0              6.372878       44.689895    
     63500   2.5656571      2.3108851      0              6.1574916      44.518305    
     63750   2.6780702      2.320771       0              6.3359149      44.600045    
     64000   2.6051561      2.3323135      0              6.2381396      44.538945    
     64250   2.6052226      2.2000903      0              6.1060161      43.284082    
     64500   2.6837553      2.2656783      0              6.2893457      43.925884    
     64750   2.5831946      2.1841978      0              6.0570977      42.689568    
     65000   2.6011775      2.2942585      0              6.1941196      44.085998    
     65250   2.5914128      2.2504637      0              6.135685       43.659027    
     65500   2.5043097      2.2910432      0              6.0456735      44.03339     
     65750   2.5700159      2.3051736      0              6.1583151      44.267807    
     66000   2.5345501      2.2294355      0              6.0294042      43.337725    
     66250   2.5805741      2.1865158      0              6.055487       42.731995    
     66500   2.456395       2.2869749      0              5.9697683      43.88276     
     66750   2.525118       2.2395551      0              6.0253827      43.129476    
     67000   2.4539551      2.1305807      0              5.809716       41.752204    
     67250   2.5392253      2.2300804      0              6.0370585      43.36294     
     67500   2.4424299      2.1499186      0              5.8117746      42.111101    
     67750   2.5230028      2.1534975      0              5.9361538      42.242577    
     68000   2.4606428      2.1607977      0              5.8499597      42.188276    
     68250   2.4236137      2.2460726      0              5.879718       43.218133    
     68500   2.4574984      2.2010491      0              5.8854969      42.840731    
     68750   2.4519408      2.1623165      0              5.8384319      42.353043    
     69000   2.4948591      2.1813295      0              5.9217909      42.330444    
     69250   2.368515       2.1618404      0              5.7128781      42.439459    
     69500   2.5400912      2.1435342      0              5.9518106      42.31779     
     69750   2.4576767      2.0879268      0              5.7726418      41.53097     
     70000   2.3908505      2.1498236      0              5.7343483      42.203881    
     70250   2.470541       2.1078122      0              5.8118143      41.622726    
     70500   2.3670138      2.125937       0              5.6747241      41.602441    
     70750   2.4207118      2.1780651      0              5.8073598      42.65726     
     71000   2.3178833      2.1241363      0              5.5992637      41.573964    
     71250   2.4596808      2.0892408      0              5.7769604      41.59945     
     71500   2.3688675      2.0244727      0              5.5760389      40.598531    
     71750   2.3649614      2.1473915      0              5.6931014      42.047546    
     72000   2.2942866      2.0634007      0              5.5031503      40.890771    
     72250   2.3746023      2.0838978      0              5.644062       41.292401    
     72500   2.3285794      2.0746994      0              5.5658629      41.300802    
     72750   2.2505483      2.0539366      0              5.4281108      41.328318    
     73000   2.3586871      2.1009655      0              5.6372687      41.500509    
     73250   2.2755136      2.0269567      0              5.4385605      40.326789    
     73500   2.3458685      2.0224643      0              5.5395489      40.606413    
     73750   2.2778651      1.9557296      0              5.370859       39.601904    
     74000   2.3030452      2.0769287      0              5.5298096      41.230977    
     74250   2.2940074      2.0136441      0              5.452975       40.284723    
     74500   2.321275       1.9642073      0              5.4444196      39.642966    
     74750   2.3501396      1.9433834      0              5.4668716      39.456147    
     75000   2.2663823      1.9758832      0              5.3737967      39.593986    
     75250   2.354394       2.0060903      0              5.5359568      40.483902    
     75500   2.2561632      1.9513702      0              5.3339625      39.48961     
     75750   2.304074       1.9794281      0              5.4338516      39.884331    
     76000   2.2235406      1.8968294      0              5.2305118      39.115393    
     76250   2.2708535      2.0037899      0              5.408407       40.387148    
     76500   2.1665234      1.9125915      0              5.1607898      38.904892    
     76750   2.2229498      2.028571       0              5.3613676      40.533269    
     77000   2.2202677      1.8353546      0              5.1641301      38.261797    
     77250   2.1824124      1.9796882      0              5.2517083      39.70098     
     77500   2.2172839      1.8532085      0              5.1775103      38.295634    
     77750   2.1356375      1.9691583      0              5.1710503      39.429033    
     78000   2.1777078      1.9299932      0              5.19496        39.157645    
     78250   2.1585805      1.834319       0              5.0706087      37.913336    
     78500   2.1919695      1.9491834      0              5.2355322      39.222684    
     78750   2.2002905      1.7803469      0              5.0791711      37.057434    
     79000   2.1540143      1.9246191      0              5.1540629      39.101511    
     79250   2.0966833      1.8142546      0              4.9577439      37.506221    
     79500   2.1967506      1.8456303      0              5.1391472      38.044733    
     79750   2.0826203      1.8301163      0              4.9525214      37.746325    
     80000   2.1624871      1.8405499      0              5.0826967      37.918343    
     80250   2.1203693      1.789476       0              4.968477       37.179463    
     80500   2.1427912      1.896938       0              5.1095553      38.422893    
     80750   2.0891916      1.8137665      0              4.9460238      37.623452    
     81000   2.0925253      1.8729814      0              5.0102367      38.326343    
     81250   2.1126367      1.7817223      0              4.9491301      37.040705    
     81500   2.0655198      1.8349579      0              4.9317247      37.696865    
     81750   2.0672785      1.8208886      0              4.9202922      37.465578    
     82000   2.0987933      1.7768896      0              4.9235423      37.034109    
     82250   2.0734125      1.7491757      0              4.8577758      36.441538    
     82500   2.0443659      1.7830224      0              4.8480739      37.409487    
     82750   2.0598924      1.7757207      0              4.8640506      36.910313    
     83000   2.0290088      1.7650519      0              4.807079       36.832685    
     83250   2.0140295      1.7590812      0              4.7786504      36.682952    
     83500   2.0821625      1.7397278      0              4.8614466      36.629421    
     83750   2.005588       1.7158819      0              4.7227949      35.965286    
     84000   2.072777       1.6893485      0              4.7969958      35.822275    
     84250   1.9478589      1.7365485      0              4.6569101      36.129679    
     84500   2.0448655      1.69987        0              4.7656706      35.860657    
     84750   1.9397837      1.6825428      0              4.5907976      35.788588    
     85000   2.0138521      1.6800885      0              4.6993917      35.701516    
     85250   1.9510028      1.7077331      0              4.6328084      36.138443    
     85500   1.9948765      1.6941679      0              4.6850216      35.922075    
     85750   1.9724368      1.6829825      0              4.6401931      35.631241    
     86000   1.9004884      1.7603949      0              4.6097356      36.454387    
     86250   2.0214537      1.6939056      0              4.7246057      35.862921    
     86500   1.9587634      1.6080811      0              4.5447915      34.557499    
     86750   1.965511       1.6985101      0              4.6453371      35.84231     
     87000   1.8497769      1.749728       0              4.5230386      36.279735    
     87250   1.9236809      1.6681342      0              4.5522466      35.349921    
     87500   1.949201       1.6167714      0              4.5391453      34.626822    
     87750   1.8851844      1.6427398      0              4.4691356      35.251251    
     88000   1.9301432      1.6797057      0              4.5735069      35.353611    
     88250   1.8675096      1.6180885      0              4.4179851      34.474907    
     88500   1.9275114      1.6109706      0              4.500826       34.756903    
     88750   1.8354343      1.623415       0              4.3752222      34.657474    
     89000   1.8744959      1.6332252      0              4.4435961      34.84147     
     89250   1.8602649      1.5470259      0              4.3360607      33.66379     
     89500   1.8606281      1.6093305      0              4.3989099      34.566951    
     89750   1.8196551      1.5360574      0              4.2642073      33.351589    
     90000   1.8402805      1.6205384      0              4.3796112      34.882866    
     90250   1.7792356      1.5405758      0              4.208126       33.527406    
     90500   1.842416       1.5675938      0              4.3298684      33.775716    
     90750   1.8433561      1.4984001      0              4.2620841      33.284882    
     91000   1.7217488      1.5165079      0              4.0978701      33.042203    
     91250   1.8160242      1.5521284      0              4.2748346      33.581395    
     91500   1.7326051      1.5364949      0              4.1341336      33.326337    
     91750   1.8043059      1.58731        0              4.2924473      34.112991    
     92000   1.7495917      1.5247071      0              4.1478132      32.942783    
     92250   1.8109682      1.5831562      0              4.2982821      33.950106    
     92500   1.8000877      1.4873174      0              4.1861305      32.976173    
     92750   1.7303512      1.506237       0              4.1004965      32.782685    
     93000   1.8093796      1.5174872      0              4.2302313      33.291787    
     93250   1.7454841      1.4568539      0              4.0738016      32.30627     
     93500   1.7695801      1.5128571      0              4.1659312      33.274428    
     93750   1.6892911      1.4857746      0              4.018474       32.674959    
     94000   1.7379438      1.5152427      0              4.1208856      33.274861    
     94250   1.7321395      1.3898382      0              3.9867789      31.336246    
     94500   1.7370997      1.4521261      0              4.0565033      32.275506    
     94750   1.7023121      1.3776058      0              3.9298271      31.094049    
     95000   1.7176217      1.4374613      0              4.0126358      32.092436    
     95250   1.6445865      1.3844584      0              3.8501337      30.914367    
     95500   1.6912304      1.4584898      0              3.9940966      32.024507    
     95750   1.6483457      1.3674847      0              3.8387959      30.786271    
     96000   1.6846184      1.3953611      0              3.9210548      31.375974    
     96250   1.6710201      1.3157861      0              3.8210923      30.109654    
     96500   1.6777503      1.369479       0              3.8848757      31.021934    
     96750   1.6282665      1.4151871      0              3.8563942      31.697565    
     97000   1.6302626      1.3819767      0              3.8261766      31.090211    
     97250   1.6446577      1.3577931      0              3.8235751      30.811136    
     97500   1.5876856      1.3316525      0              3.712018       30.464235    
     97750   1.6747732      1.3500153      0              3.8609485      30.612061    
     98000   1.5900953      1.3549013      0              3.7388797      30.409222    
     98250   1.6301194      1.3178142      0              3.7617994      29.954549    
     98500   1.5830851      1.2986265      0              3.6720947      29.83887     
     98750   1.5970122      1.3838916      0              3.7782402      30.906631    
     99000   1.5600883      1.3029766      0              3.6419663      29.88866     
     99250   1.5969941      1.3227319      0              3.7170534      30.322914    
     99500   1.5624462      1.2393132      0              3.5818381      29.153089    
     99750   1.5850998      1.3022228      0              3.6787115      29.949662    
    100000   1.5327252      1.3359425      0              3.6339077      30.34152     
    100250   1.4957053      1.2929566      0              3.535419       29.662183    
    100500   1.5645214      1.2743915      0              3.6200277      29.507549    
    100750   1.5053525      1.286995       0              3.5439213      29.64773     
    101000   1.5238948      1.2558359      0              3.540562       28.994536    
    101250   1.5545015      1.2212265      0              3.5518402      28.74217     
    101500   1.4625312      1.2768574      0              3.469583       29.480072    
    101750   1.5429498      1.2364758      0              3.5497704      28.902016    
    102000   1.4823736      1.2375771      0              3.4600519      28.935527    
    102250   1.4797439      1.2928952      0              3.5114272      29.611536    
    102500   1.4713449      1.2029816      0              3.4089213      28.206368    
    102750   1.499535       1.2243436      0              3.4725478      28.768518    
    103000   1.422894       1.311586       0              3.4448849      29.884506    
    103250   1.4402604      1.1999862      0              3.359322       28.328247    
    103500   1.4612571      1.2466759      0              3.4374914      28.921857    
    103750   1.4133598      1.1934359      0              3.3124404      28.125157    
    104000   1.4346014      1.2395692      0              3.3904206      28.870033    
    104250   1.3984207      1.1984712      0              3.295078       28.256111    
    104500   1.4293757      1.1906596      0              3.3336762      28.206408    
    104750   1.3701014      1.1966793      0              3.2508279      28.152987    
    105000   1.4267699      1.1612264      0              3.3003362      27.684351    
    105250   1.3809374      1.1264316      0              3.1968263      27.117351    
    105500   1.4091414      1.1578911      0              3.2705711      27.437821    
    105750   1.3330245      1.1417155      0              3.1402759      27.382986    
    106000   1.4186737      1.1116281      0              3.2385995      26.954613    
    106250   1.3413714      1.0876345      0              3.0987092      26.440408    
    106500   1.3641592      1.14488        0              3.1901196      27.519916    
    106750   1.3146503      1.1064736      0              3.0774862      26.833223    
    107000   1.3476223      1.1239162      0              3.1443625      26.986319    
    107250   1.3284451      1.0670046      0              3.0586993      26.041976    
    107500   1.3424958      1.0730413      0              3.0858018      26.111545    
    107750   1.3288578      1.0814054      0              3.0737188      26.293988    
    108000   1.2954081      1.0895485      0              3.0317118      26.436194    
    108250   1.322703       1.0742903      0              3.057376       26.449462    
    108500   1.2743479      1.0618298      0              2.9724182      25.951931    
    108750   1.3356591      1.0222814      0              3.0247918      25.396962    
    109000   1.2131652      1.069118       0              2.8879772      26.137768    
    109250   1.2633668      1.0554599      0              2.9495848      25.942588    
    109500   1.2762994      1.0621134      0              2.9756277      25.819271    
    109750   1.2786002      0.96904584     0              2.8860096      24.576158    
    110000   1.2681882      1.0789391      0              2.9802926      26.006968    
    110250   1.2500168      0.99218383     0              2.8662935      24.918708    
    110500   1.2876045      1.0494055      0              2.9798691      25.913233    
    110750   1.2506754      0.9919727      0              2.8670698      24.952721    
    111000   1.2093145      1.0099962      0              2.8230823      25.365063    
    111250   1.2479224      0.99979082     0              2.8707605      24.987413    
    111500   1.1809355      1.0010498      0              2.7715881      24.892064    
    111750   1.2202427      0.99206024     0              2.8215306      24.824996    
    112000   1.2248519      0.96894934     0              2.80533        24.445713    
    112250   1.1979066      0.9410299      0              2.7370125      23.944374    
    112500   1.2229633      0.96694676     0              2.800496       24.535878    
    112750   1.1799504      0.94296126     0              2.7120227      23.901858    
    113000   1.1882715      0.95901663     0              2.7405535      24.344449    
    113250   1.1730011      0.9132091      0              2.6718516      23.551239    
    113500   1.1656336      0.9615115      0              2.7091081      24.264833    
    113750   1.1582299      0.9022279      0              2.6387245      23.220901    
    114000   1.1291048      0.95955354     0              2.6523838      24.106179    
    114250   1.1447571      0.90089199     0              2.6171892      23.194534    
    114500   1.125166       0.8983367      0              2.5852615      23.351543    
    114750   1.1345725      0.89334454     0              2.5943723      23.380743    
    115000   1.1013598      0.870085       0              2.521318       22.644341    
    115250   1.1167988      0.8961645      0              2.5705448      23.029334    
    115500   1.0792932      0.86729022     0              2.4854395      22.670502    
    115750   1.0950895      0.88627502     0              2.5281073      22.886796    
    116000   1.0614405      0.85139953     0              2.4427829      22.426713    
    116250   1.0908221      0.86875099     0              2.5041853      22.578529    
    116500   1.0758589      0.84236129     0              2.4553616      22.092146    
    116750   1.072125       0.84239508     0              2.4497974      22.170652    
    117000   1.0375328      0.82671804     0              2.3822573      22.061905    
    117250   1.0693493      0.85553469     0              2.4587754      22.509256    
    117500   1.0312236      0.84262667     0              2.3887067      22.271674    
    117750   1.0311834      0.83125978     0              2.3772796      22.085787    
    118000   1.0039819      0.81027152     0              2.315509       21.683207    
    118250   1.0393748      0.83629736     0              2.3945984      22.205138    
    118500   0.99374388     0.80599058     0              2.2958786      21.418945    
    118750   1.0152096      0.81600896     0              2.3380798      21.507674    
    119000   0.97300288     0.78854913     0              2.2473408      21.372588    
    119250   1.0067319      0.80402471     0              2.3133853      21.655667    
    119500   0.95919823     0.78379776     0              2.2218926      21.29129     
    119750   0.98401659     0.78754395     0              2.2628481      21.241636    
    120000   0.95371877     0.77377487     0              2.2036545      20.916545    
    120250   0.96468928     0.77036679     0              2.2166942      20.740976    
    120500   0.95650928     0.72977818     0              2.1638415      20.34199     
    120750   0.95394027     0.7598361      0              2.1900478      20.762765    
    121000   0.94106977     0.73565478     0              2.1465702      20.323625    
    121250   0.9303136      0.70380725     0              2.0985963      19.614882    
    121500   0.94316723     0.74823628     0              2.1622963      20.315484    
    121750   0.9088296      0.7106397      0              2.0732185      19.810143    
    122000   0.92701992     0.71929104     0              2.1091419      20.087674    
    122250   0.89097386     0.69173811     0              2.0275463      19.494872    
    122500   0.93097843     0.70329884     0              2.0990846      19.586326    
    122750   0.88931741     0.66980822     0              2.003133       18.936586    
    123000   0.88472278     0.7130588      0              2.039495       19.658387    
    123250   0.86027279     0.66666826     0              1.9564474      18.978992    
    123500   0.90109414     0.65883768     0              2.0098189      18.831955    
    123750   0.85176368     0.67862473     0              1.9556464      19.338163    
    124000   0.85149923     0.66118244     0              1.9378076      18.844633    
    124250   0.858916       0.66381931     0              1.9515642      19.00686     
    124500   0.83333315     0.64805703     0              1.8974464      18.654472    
    124750   0.85126342     0.65041747     0              1.9266891      18.771064    
    125000   0.82586171     0.61526815     0              1.8534558      18.13889     
    125250   0.83653691     0.66487995     0              1.9190726      18.929849    
    125500   0.8082678      0.60895509     0              1.8207648      17.836426    
    125750   0.80970461     0.63013335     0              1.8440972      18.263691    
    126000   0.77714137     0.61349399     0              1.7786369      18.020098    
    126250   0.81670033     0.59017502     0              1.8146273      17.435195    
    126500   0.79388317     0.58922935     0              1.7794726      17.514026    
    126750   0.75156498     0.60760262     0              1.7343996      17.68832     
    127000   0.77090957     0.61070856     0              1.7665083      18.055461    
    127250   0.7341391      0.59150659     0              1.6921775      17.465583    
    127500   0.78780708     0.5654405      0              1.7465741      17.210207    
    127750   0.76324339     0.53992801     0              1.6842341      16.628795    
    128000   0.73141438     0.55393342     0              1.6505193      16.678317    
    128250   0.74961126     0.55853588     0              1.6824037      16.904759    
    128500   0.7354221      0.50827642     0              1.6108709      16.02132     
    128750   0.73431597     0.55747403     0              1.6584102      16.84212     
    129000   0.71827525     0.5135842      0              1.590471       16.052138    
    129250   0.6950429      0.53196211     0              1.5740174      16.322566    
    129500   0.68878177     0.53808886     0              1.570757       16.753669    
    129750   0.68088834     0.51045838     0              1.5312922      15.905972    
    130000   0.68988463     0.5433893      0              1.577711       16.467187    
    130250   0.66707031     0.50070952     0              1.5008264      15.741947    
    130500   0.66340772     0.49594715     0              1.4905728      15.650631    
    130750   0.65482508     0.50838258     0              1.4901406      15.765811    
    131000   0.66079656     0.46321961     0              1.4539305      14.937709    
    131250   0.63174211     0.4845693      0              1.4317198      15.369843    
    131500   0.64138462     0.46216619     0              1.4237733      14.920831    
    131750   0.62391504     0.49071787     0              1.4261335      15.439505    
    132000   0.6098539      0.46464318     0              1.3789774      14.916393    
    132250   0.61335761     0.43635315     0              1.3559403      14.311526    
    132500   0.61008842     0.46525893     0              1.3799447      14.871448    
    132750   0.58749777     0.44449938     0              1.3253157      14.474168    
    133000   0.59517225     0.45562224     0              1.3479447      14.681555    
    133250   0.57992206     0.41727801     0              1.2867363      13.698893    
    133500   0.59250765     0.43070792     0              1.3190354      14.180791    
    133750   0.57478062     0.40334643     0              1.2650964      13.570287    
    134000   0.5626098      0.40383991     0              1.2473425      13.463459    
    134250   0.54623167     0.39767332     0              1.2166207      13.432247    
    134500   0.56358348     0.40551087     0              1.2504733      13.653239    
    134750   0.54218855     0.38016017     0              1.1930459      13.115713    
    135000   0.53792267     0.37846697     0              1.184957       13.075192    
    135250   0.51689045     0.37382206     0              1.1487792      12.793162    
    135500   0.53123371     0.38319442     0              1.1796559      13.181758    
    135750   0.52248774     0.3471012      0              1.1304501      12.258289    
    136000   0.50670073     0.34650301     0              1.106183       12.345134    
    136250   0.49987836     0.35987873     0              1.1093301      12.590566    
    136500   0.49485088     0.32503685     0              1.0669507      11.709586    
    136750   0.50728687     0.35100306     0              1.1115618      12.29091     
    137000   0.48297871     0.3260212      0              1.0501355      11.839257    
    137250   0.45557629     0.34020918     0              1.0232399      12.027996    
    137500   0.47425678     0.317095       0              1.0281328      11.554499    
    137750   0.45685816     0.30172617     0              0.9866788      11.264998    
    138000   0.46770646     0.32032089     0              1.021538       11.687461    
    138250   0.44387768     0.29876302     0              0.96425444     11.099891    
    138500   0.42873808     0.29513728     0              0.93793038     11.037263    
    138750   0.42360537     0.28962785     0              0.92472565     10.905551    
    139000   0.41655069     0.28611608     0              0.91063703     10.854077    
    139250   0.41210351     0.26963132     0              0.88748475     10.383413    
    139500   0.41476322     0.27720289     0              0.89904394     10.534215    
    139750   0.39888167     0.26236616     0              0.86039651     10.26289     
    140000   0.39080852     0.24773319     0              0.83365973     9.8405308    
    140250   0.38851511     0.24976908     0              0.83225719     9.9064429    
    140500   0.37661009     0.24838294     0              0.81302224     9.9306094    
    140750   0.36397569     0.24926219     0              0.79495915     9.8089704    
    141000   0.35363513     0.23252345     0              0.76271714     9.456064     
    141250   0.36156226     0.24120852     0              0.78328709     9.6275803    
    141500   0.34943541     0.2223095      0              0.74620669     9.1686667    
    141750   0.33787001     0.21448736     0              0.72104491     8.9413679    
    142000   0.32345646     0.21334192     0              0.6982897      8.8170613    
    142250   0.32555788     0.22119717     0              0.70929554     9.0631231    
    142500   0.32442324     0.19348058     0              0.67987783     8.3502444    
    142750   0.30316963     0.19274881     0              0.64728122     8.2934049    
    143000   0.30710407     0.19807825     0              0.65850943     8.477355     
    143250   0.28911882     0.19899612     0              0.63246259     8.5594227    
    143500   0.28951905     0.17715454     0              0.61122106     7.8757546    
    143750   0.27758239     0.1661166      0              0.58228689     7.5400759    
    144000   0.28564444     0.16659357     0              0.59485102     7.5803296    
    144250   0.26797085     0.16034244     0              0.56210245     7.3152607    
    144500   0.25977435     0.15321382     0              0.54268508     7.1637587    
    144750   0.25183922     0.15539737     0              0.53297176     7.1259061    
    145000   0.25420516     0.1507208      0              0.53184235     7.0785565    
    145250   0.2389129      0.13849699     0              0.49669136     6.6824346    
    145500   0.23606117     0.12804942     0              0.48196829     6.3827315    
    145750   0.21837843     0.13160181     0              0.45900952     6.4802437    
    146000   0.22344267     0.12793192     0              0.46293227     6.3675022    
    146250   0.2147195      0.1129191      0              0.43484108     5.8723378    
    146500   0.20441057     0.11008671     0              0.41655286     5.7962037    
    146750   0.19050281     0.1038098      0              0.38942449     5.4832913    
    147000   0.1903297      0.10930189     0              0.39465704     5.6805675    
    147250   0.18172067     0.10103774     0              0.37348564     5.4925627    
    147500   0.17440493     0.094104687    0              0.35558434     5.2407043    
    147750   0.16702696     0.092486376    0              0.34290448     5.1631043    
    148000   0.15946196     0.087293387    0              0.32636953     4.9602279    
    148250   0.15252799     0.081256047    0              0.30993632     4.6890491    
    148500   0.14578019     0.076454634    0              0.29501814     4.5488714    
    148750   0.13843654     0.071875874    0              0.27942929     4.3304211    
    149000   0.13063996     0.067669665    0              0.26353393     4.1971595    
    149250   0.12360007     0.062496224    0              0.2478058      3.9939188    
    149500   0.11721436     0.056678188    0              0.23241388     3.7075247    
    149750   0.11022996     0.051976494    0              0.2172407      3.4552214    
    150000   0.10264676     0.047736739    0              0.20163171     3.3138741    
Loop time of 28.7369 on 1 procs for 100000 steps with 2048 atoms

Performance: 1503294.698 tau/day, 3479.849 timesteps/s, 7.127 Matom-step/s
98.6% CPU use with 1 MPI tasks x 1 OpenMP threads

MPI task timing breakdown:
Section |  min time  |  avg time  |  max time  |%varavg| %total
---------------------------------------------------------------
Pair    | 12.92      | 12.92      | 12.92      |   0.0 | 44.96
Neigh   | 11.147     | 11.147     | 11.147     |   0.0 | 38.79
Comm    | 1.0767     | 1.0767     | 1.0767     |   0.0 |  3.75
Output  | 0.32747    | 0.32747    | 0.32747    |   0.0 |  1.14
Modify  | 2.5526     | 2.5526     | 2.5526     |   0.0 |  8.88
Other   |            | 0.7139     |            |       |  2.48

Nlocal:           2048 ave        2048 max        2048 min
Histogram: 1 0 0 0 0 0 0 0 0 0
Nghost:           1381 ave        1381 max        1381 min
Histogram: 1 0 0 0 0 0 0 0 0 0
Neighs:          12288 ave       12288 max       12288 min
Histogram: 1 0 0 0 0 0 0 0 0 0

Total # of neighbors = 12288
Ave neighs/atom = 6
Neighbor list builds = 14842
Dangerous builds = 0
Total wall time: 0:00:46
