ITEM: TIMESTEP
0
ITEM: NUMBER OF ATOMS
4000
ITEM: BOX BOUNDS pp pp pp
0.0000000000000000e+00 1.6795961913825074e+01
0.0000000000000000e+00 1.6795961913825074e+01
0.0000000000000000e+00 1.6795961913825074e+01
ITEM: ATOMS id type xs ys zs
1 1 0 0 0
2 1 0.05 0.05 0
3 1 0.05 0 0.05
4 1 0 0.05 0.05
41 1 0 0.1 0
43 1 0.05 0.1 0.05
201 1 0 0 0.1
202 1 0.05 0.05 0.1
241 1 0 0.1 0.1
5 1 0.1 0 0
6 1 0.15 0.05 0
7 1 0.15 0 0.05
8 1 0.1 0.05 0.05
45 1 0.1 0.1 0
47 1 0.15 0.1 0.05
205 1 0.1 0 0.1
206 1 0.15 0.05 0.1
245 1 0.1 0.1 0.1
9 1 0.2 0 0
10 1 0.25 0.05 0
11 1 0.25 0 0.05
12 1 0.2 0.05 0.05
49 1 0.2 0.1 0
51 1 0.25 0.1 0.05
209 1 0.2 0 0.1
210 1 0.25 0.05 0.1
249 1 0.2 0.1 0.1
13 1 0.3 0 0
14 1 0.35 0.05 0
15 1 0.35 0 0.05
16 1 0.3 0.05 0.05
53 1 0.3 0.1 0
55 1 0.35 0.1 0.05
213 1 0.3 0 0.1
214 1 0.35 0.05 0.1
253 1 0.3 0.1 0.1
17 1 0.4 0 0
18 1 0.45 0.05 0
19 1 0.45 0 0.05
20 1 0.4 0.05 0.05
57 1 0.4 0.1 0
59 1 0.45 0.1 0.05
217 1 0.4 0 0.1
218 1 0.45 0.05 0.1
257 1 0.4 0.1 0.1
21 1 0.5 0 0
24 1 0.5 0.05 0.05
61 1 0.5 0.1 0
221 1 0.5 0 0.1
261 1 0.5 0.1 0.1
22 1 0.55 0.05 0
23 1 0.55 0 0.05
25 1 0.6 0 0
28 1 0.6 0.05 0.05
63 1 0.55 0.1 0.05
65 1 0.6 0.1 0
222 1 0.55 0.05 0.1
225 1 0.6 0 0.1
265 1 0.6 0.1 0.1
26 1 0.65 0.05 0
27 1 0.65 0 0.05
29 1 0.7 0 0
32 1 0.7 0.05 0.05
67 1 0.65 0.1 0.05
69 1 0.7 0.1 0
226 1 0.65 0.05 0.1
229 1 0.7 0 0.1
269 1 0.7 0.1 0.1
30 1 0.75 0.05 0
31 1 0.75 0 0.05
33 1 0.8 0 0
36 1 0.8 0.05 0.05
71 1 0.75 0.1 0.05
73 1 0.8 0.1 0
230 1 0.75 0.05 0.1
233 1 0.8 0 0.1
273 1 0.8 0.1 0.1
34 1 0.85 0.05 0
35 1 0.85 0 0.05
37 1 0.9 0 0
40 1 0.9 0.05 0.05
75 1 0.85 0.1 0.05
77 1 0.9 0.1 0
234 1 0.85 0.05 0.1
237 1 0.9 0 0.1
277 1 0.9 0.1 0.1
38 1 0.95 0.05 0
39 1 0.95 0 0.05
79 1 0.95 0.1 0.05
238 1 0.95 0.05 0.1
42 1 0.05 0.15 0
44 1 0 0.15 0.05
81 1 0 0.2 0
83 1 0.05 0.2 0.05
242 1 0.05 0.15 0.1
281 1 0 0.2 0.1
46 1 0.15 0.15 0
48 1 0.1 0.15 0.05
85 1 0.1 0.2 0
87 1 0.15 0.2 0.05
246 1 0.15 0.15 0.1
285 1 0.1 0.2 0.1
50 1 0.25 0.15 0
52 1 0.2 0.15 0.05
89 1 0.2 0.2 0
91 1 0.25 0.2 0.05
250 1 0.25 0.15 0.1
289 1 0.2 0.2 0.1
54 1 0.35 0.15 0
56 1 0.3 0.15 0.05
93 1 0.3 0.2 0
95 1 0.35 0.2 0.05
254 1 0.35 0.15 0.1
293 1 0.3 0.2 0.1
58 1 0.45 0.15 0
60 1 0.4 0.15 0.05
97 1 0.4 0.2 0
99 1 0.45 0.2 0.05
258 1 0.45 0.15 0.1
297 1 0.4 0.2 0.1
64 1 0.5 0.15 0.05
101 1 0.5 0.2 0
301 1 0.5 0.2 0.1
62 1 0.55 0.15 0
68 1 0.6 0.15 0.05
103 1 0.55 0.2 0.05
105 1 0.6 0.2 0
262 1 0.55 0.15 0.1
305 1 0.6 0.2 0.1
66 1 0.65 0.15 0
72 1 0.7 0.15 0.05
107 1 0.65 0.2 0.05
109 1 0.7 0.2 0
266 1 0.65 0.15 0.1
309 1 0.7 0.2 0.1
70 1 0.75 0.15 0
76 1 0.8 0.15 0.05
111 1 0.75 0.2 0.05
113 1 0.8 0.2 0
270 1 0.75 0.15 0.1
313 1 0.8 0.2 0.1
74 1 0.85 0.15 0
80 1 0.9 0.15 0.05
115 1 0.85 0.2 0.05
117 1 0.9 0.2 0
274 1 0.85 0.15 0.1
317 1 0.9 0.2 0.1
78 1 0.95 0.15 0
119 1 0.95 0.2 0.05
278 1 0.95 0.15 0.1
82 1 0.05 0.25 0
84 1 0 0.25 0.05
121 1 0 0.3 0
123 1 0.05 0.3 0.05
282 1 0.05 0.25 0.1
321 1 0 0.3 0.1
86 1 0.15 0.25 0
88 1 0.1 0.25 0.05
125 1 0.1 0.3 0
127 1 0.15 0.3 0.05
286 1 0.15 0.25 0.1
325 1 0.1 0.3 0.1
90 1 0.25 0.25 0
92 1 0.2 0.25 0.05
129 1 0.2 0.3 0
131 1 0.25 0.3 0.05
290 1 0.25 0.25 0.1
329 1 0.2 0.3 0.1
94 1 0.35 0.25 0
96 1 0.3 0.25 0.05
133 1 0.3 0.3 0
135 1 0.35 0.3 0.05
294 1 0.35 0.25 0.1
333 1 0.3 0.3 0.1
98 1 0.45 0.25 0
100 1 0.4 0.25 0.05
137 1 0.4 0.3 0
139 1 0.45 0.3 0.05
298 1 0.45 0.25 0.1
337 1 0.4 0.3 0.1
104 1 0.5 0.25 0.05
141 1 0.5 0.3 0
341 1 0.5 0.3 0.1
102 1 0.55 0.25 0
108 1 0.6 0.25 0.05
143 1 0.55 0.3 0.05
145 1 0.6 0.3 0
302 1 0.55 0.25 0.1
345 1 0.6 0.3 0.1
106 1 0.65 0.25 0
112 1 0.7 0.25 0.05
147 1 0.65 0.3 0.05
149 1 0.7 0.3 0
306 1 0.65 0.25 0.1
349 1 0.7 0.3 0.1
110 1 0.75 0.25 0
116 1 0.8 0.25 0.05
151 1 0.75 0.3 0.05
153 1 0.8 0.3 0
310 1 0.75 0.25 0.1
353 1 0.8 0.3 0.1
114 1 0.85 0.25 0
120 1 0.9 0.25 0.05
155 1 0.85 0.3 0.05
157 1 0.9 0.3 0
314 1 0.85 0.25 0.1
357 1 0.9 0.3 0.1
118 1 0.95 0.25 0
159 1 0.95 0.3 0.05
318 1 0.95 0.25 0.1
122 1 0.05 0.35 0
124 1 0 0.35 0.05
161 1 0 0.4 0
163 1 0.05 0.4 0.05
322 1 0.05 0.35 0.1
361 1 0 0.4 0.1
126 1 0.15 0.35 0
128 1 0.1 0.35 0.05
165 1 0.1 0.4 0
167 1 0.15 0.4 0.05
326 1 0.15 0.35 0.1
365 1 0.1 0.4 0.1
130 1 0.25 0.35 0
132 1 0.2 0.35 0.05
169 1 0.2 0.4 0
171 1 0.25 0.4 0.05
330 1 0.25 0.35 0.1
369 1 0.2 0.4 0.1
134 1 0.35 0.35 0
136 1 0.3 0.35 0.05
173 1 0.3 0.4 0
175 1 0.35 0.4 0.05
334 1 0.35 0.35 0.1
373 1 0.3 0.4 0.1
138 1 0.45 0.35 0
140 1 0.4 0.35 0.05
177 1 0.4 0.4 0
179 1 0.45 0.4 0.05
338 1 0.45 0.35 0.1
377 1 0.4 0.4 0.1
144 1 0.5 0.35 0.05
181 1 0.5 0.4 0
381 1 0.5 0.4 0.1
142 1 0.55 0.35 0
148 1 0.6 0.35 0.05
183 1 0.55 0.4 0.05
185 1 0.6 0.4 0
342 1 0.55 0.35 0.1
385 1 0.6 0.4 0.1
146 1 0.65 0.35 0
152 1 0.7 0.35 0.05
187 1 0.65 0.4 0.05
189 1 0.7 0.4 0
346 1 0.65 0.35 0.1
389 1 0.7 0.4 0.1
150 1 0.75 0.35 0
156 1 0.8 0.35 0.05
191 1 0.75 0.4 0.05
193 1 0.8 0.4 0
350 1 0.75 0.35 0.1
393 1 0.8 0.4 0.1
154 1 0.85 0.35 0
160 1 0.9 0.35 0.05
195 1 0.85 0.4 0.05
197 1 0.9 0.4 0
354 1 0.85 0.35 0.1
397 1 0.9 0.4 0.1
158 1 0.95 0.35 0
199 1 0.95 0.4 0.05
358 1 0.95 0.35 0.1
162 1 0.05 0.45 0
164 1 0 0.45 0.05
362 1 0.05 0.45 0.1
166 1 0.15 0.45 0
168 1 0.1 0.45 0.05
366 1 0.15 0.45 0.1
170 1 0.25 0.45 0
172 1 0.2 0.45 0.05
370 1 0.25 0.45 0.1
174 1 0.35 0.45 0
176 1 0.3 0.45 0.05
374 1 0.35 0.45 0.1
178 1 0.45 0.45 0
180 1 0.4 0.45 0.05
378 1 0.45 0.45 0.1
184 1 0.5 0.45 0.05
182 1 0.55 0.45 0
188 1 0.6 0.45 0.05
382 1 0.55 0.45 0.1
186 1 0.65 0.45 0
192 1 0.7 0.45 0.05
386 1 0.65 0.45 0.1
190 1 0.75 0.45 0
196 1 0.8 0.45 0.05
390 1 0.75 0.45 0.1
194 1 0.85 0.45 0
200 1 0.9 0.45 0.05
394 1 0.85 0.45 0.1
198 1 0.95 0.45 0
398 1 0.95 0.45 0.1
203 1 0.05 0 0.15
204 1 0 0.05 0.15
243 1 0.05 0.1 0.15
401 1 0 0 0.2
402 1 0.05 0.05 0.2
441 1 0 0.1 0.2
207 1 0.15 0 0.15
208 1 0.1 0.05 0.15
247 1 0.15 0.1 0.15
405 1 0.1 0 0.2
406 1 0.15 0.05 0.2
445 1 0.1 0.1 0.2
211 1 0.25 0 0.15
212 1 0.2 0.05 0.15
251 1 0.25 0.1 0.15
409 1 0.2 0 0.2
410 1 0.25 0.05 0.2
449 1 0.2 0.1 0.2
215 1 0.35 0 0.15
216 1 0.3 0.05 0.15
255 1 0.35 0.1 0.15
413 1 0.3 0 0.2
414 1 0.35 0.05 0.2
453 1 0.3 0.1 0.2
219 1 0.45 0 0.15
220 1 0.4 0.05 0.15
259 1 0.45 0.1 0.15
417 1 0.4 0 0.2
418 1 0.45 0.05 0.2
457 1 0.4 0.1 0.2
224 1 0.5 0.05 0.15
421 1 0.5 0 0.2
461 1 0.5 0.1 0.2
223 1 0.55 0 0.15
228 1 0.6 0.05 0.15
263 1 0.55 0.1 0.15
422 1 0.55 0.05 0.2
425 1 0.6 0 0.2
465 1 0.6 0.1 0.2
227 1 0.65 0 0.15
232 1 0.7 0.05 0.15
267 1 0.65 0.1 0.15
426 1 0.65 0.05 0.2
429 1 0.7 0 0.2
469 1 0.7 0.1 0.2
231 1 0.75 0 0.15
236 1 0.8 0.05 0.15
271 1 0.75 0.1 0.15
430 1 0.75 0.05 0.2
433 1 0.8 0 0.2
473 1 0.8 0.1 0.2
235 1 0.85 0 0.15
240 1 0.9 0.05 0.15
275 1 0.85 0.1 0.15
434 1 0.85 0.05 0.2
437 1 0.9 0 0.2
477 1 0.9 0.1 0.2
239 1 0.95 0 0.15
279 1 0.95 0.1 0.15
438 1 0.95 0.05 0.2
244 1 0 0.15 0.15
283 1 0.05 0.2 0.15
442 1 0.05 0.15 0.2
481 1 0 0.2 0.2
248 1 0.1 0.15 0.15
287 1 0.15 0.2 0.15
446 1 0.15 0.15 0.2
485 1 0.1 0.2 0.2
252 1 0.2 0.15 0.15
291 1 0.25 0.2 0.15
450 1 0.25 0.15 0.2
489 1 0.2 0.2 0.2
256 1 0.3 0.15 0.15
295 1 0.35 0.2 0.15
454 1 0.35 0.15 0.2
493 1 0.3 0.2 0.2
260 1 0.4 0.15 0.15
299 1 0.45 0.2 0.15
458 1 0.45 0.15 0.2
497 1 0.4 0.2 0.2
264 1 0.5 0.15 0.15
501 1 0.5 0.2 0.2
268 1 0.6 0.15 0.15
303 1 0.55 0.2 0.15
462 1 0.55 0.15 0.2
505 1 0.6 0.2 0.2
272 1 0.7 0.15 0.15
307 1 0.65 0.2 0.15
466 1 0.65 0.15 0.2
509 1 0.7 0.2 0.2
276 1 0.8 0.15 0.15
311 1 0.75 0.2 0.15
470 1 0.75 0.15 0.2
513 1 0.8 0.2 0.2
280 1 0.9 0.15 0.15
315 1 0.85 0.2 0.15
474 1 0.85 0.15 0.2
517 1 0.9 0.2 0.2
319 1 0.95 0.2 0.15
478 1 0.95 0.15 0.2
284 1 0 0.25 0.15
323 1 0.05 0.3 0.15
482 1 0.05 0.25 0.2
521 1 0 0.3 0.2
288 1 0.1 0.25 0.15
327 1 0.15 0.3 0.15
486 1 0.15 0.25 0.2
525 1 0.1 0.3 0.2
292 1 0.2 0.25 0.15
331 1 0.25 0.3 0.15
490 1 0.25 0.25 0.2
529 1 0.2 0.3 0.2
296 1 0.3 0.25 0.15
335 1 0.35 0.3 0.15
494 1 0.35 0.25 0.2
533 1 0.3 0.3 0.2
300 1 0.4 0.25 0.15
339 1 0.45 0.3 0.15
498 1 0.45 0.25 0.2
537 1 0.4 0.3 0.2
304 1 0.5 0.25 0.15
541 1 0.5 0.3 0.2
308 1 0.6 0.25 0.15
343 1 0.55 0.3 0.15
502 1 0.55 0.25 0.2
545 1 0.6 0.3 0.2
312 1 0.7 0.25 0.15
347 1 0.65 0.3 0.15
506 1 0.65 0.25 0.2
549 1 0.7 0.3 0.2
316 1 0.8 0.25 0.15
351 1 0.75 0.3 0.15
510 1 0.75 0.25 0.2
553 1 0.8 0.3 0.2
320 1 0.9 0.25 0.15
355 1 0.85 0.3 0.15
514 1 0.85 0.25 0.2
557 1 0.9 0.3 0.2
359 1 0.95 0.3 0.15
518 1 0.95 0.25 0.2
324 1 0 0.35 0.15
363 1 0.05 0.4 0.15
522 1 0.05 0.35 0.2
561 1 0 0.4 0.2
328 1 0.1 0.35 0.15
367 1 0.15 0.4 0.15
526 1 0.15 0.35 0.2
565 1 0.1 0.4 0.2
332 1 0.2 0.35 0.15
371 1 0.25 0.4 0.15
530 1 0.25 0.35 0.2
569 1 0.2 0.4 0.2
336 1 0.3 0.35 0.15
375 1 0.35 0.4 0.15
534 1 0.35 0.35 0.2
573 1 0.3 0.4 0.2
340 1 0.4 0.35 0.15
379 1 0.45 0.4 0.15
538 1 0.45 0.35 0.2
577 1 0.4 0.4 0.2
344 1 0.5 0.35 0.15
581 1 0.5 0.4 0.2
348 1 0.6 0.35 0.15
383 1 0.55 0.4 0.15
542 1 0.55 0.35 0.2
585 1 0.6 0.4 0.2
352 1 0.7 0.35 0.15
387 1 0.65 0.4 0.15
546 1 0.65 0.35 0.2
589 1 0.7 0.4 0.2
356 1 0.8 0.35 0.15
391 1 0.75 0.4 0.15
550 1 0.75 0.35 0.2
593 1 0.8 0.4 0.2
360 1 0.9 0.35 0.15
395 1 0.85 0.4 0.15
554 1 0.85 0.35 0.2
597 1 0.9 0.4 0.2
399 1 0.95 0.4 0.15
558 1 0.95 0.35 0.2
364 1 0 0.45 0.15
562 1 0.05 0.45 0.2
368 1 0.1 0.45 0.15
566 1 0.15 0.45 0.2
372 1 0.2 0.45 0.15
570 1 0.25 0.45 0.2
376 1 0.3 0.45 0.15
574 1 0.35 0.45 0.2
380 1 0.4 0.45 0.15
578 1 0.45 0.45 0.2
384 1 0.5 0.45 0.15
388 1 0.6 0.45 0.15
582 1 0.55 0.45 0.2
392 1 0.7 0.45 0.15
586 1 0.65 0.45 0.2
396 1 0.8 0.45 0.15
590 1 0.75 0.45 0.2
400 1 0.9 0.45 0.15
594 1 0.85 0.45 0.2
598 1 0.95 0.45 0.2
403 1 0.05 0 0.25
404 1 0 0.05 0.25
443 1 0.05 0.1 0.25
601 1 0 0 0.3
602 1 0.05 0.05 0.3
641 1 0 0.1 0.3
407 1 0.15 0 0.25
408 1 0.1 0.05 0.25
447 1 0.15 0.1 0.25
605 1 0.1 0 0.3
606 1 0.15 0.05 0.3
645 1 0.1 0.1 0.3
411 1 0.25 0 0.25
412 1 0.2 0.05 0.25
451 1 0.25 0.1 0.25
609 1 0.2 0 0.3
610 1 0.25 0.05 0.3
649 1 0.2 0.1 0.3
415 1 0.35 0 0.25
416 1 0.3 0.05 0.25
455 1 0.35 0.1 0.25
613 1 0.3 0 0.3
614 1 0.35 0.05 0.3
653 1 0.3 0.1 0.3
419 1 0.45 0 0.25
420 1 0.4 0.05 0.25
459 1 0.45 0.1 0.25
617 1 0.4 0 0.3
618 1 0.45 0.05 0.3
657 1 0.4 0.1 0.3
424 1 0.5 0.05 0.25
621 1 0.5 0 0.3
661 1 0.5 0.1 0.3
423 1 0.55 0 0.25
428 1 0.6 0.05 0.25
463 1 0.55 0.1 0.25
622 1 0.55 0.05 0.3
625 1 0.6 0 0.3
665 1 0.6 0.1 0.3
427 1 0.65 0 0.25
432 1 0.7 0.05 0.25
467 1 0.65 0.1 0.25
626 1 0.65 0.05 0.3
629 1 0.7 0 0.3
669 1 0.7 0.1 0.3
431 1 0.75 0 0.25
436 1 0.8 0.05 0.25
471 1 0.75 0.1 0.25
630 1 0.75 0.05 0.3
633 1 0.8 0 0.3
673 1 0.8 0.1 0.3
435 1 0.85 0 0.25
440 1 0.9 0.05 0.25
475 1 0.85 0.1 0.25
634 1 0.85 0.05 0.3
637 1 0.9 0 0.3
677 1 0.9 0.1 0.3
439 1 0.95 0 0.25
479 1 0.95 0.1 0.25
638 1 0.95 0.05 0.3
444 1 0 0.15 0.25
483 1 0.05 0.2 0.25
642 1 0.05 0.15 0.3
681 1 0 0.2 0.3
448 1 0.1 0.15 0.25
487 1 0.15 0.2 0.25
646 1 0.15 0.15 0.3
685 1 0.1 0.2 0.3
452 1 0.2 0.15 0.25
491 1 0.25 0.2 0.25
650 1 0.25 0.15 0.3
689 1 0.2 0.2 0.3
456 1 0.3 0.15 0.25
495 1 0.35 0.2 0.25
654 1 0.35 0.15 0.3
693 1 0.3 0.2 0.3
460 1 0.4 0.15 0.25
499 1 0.45 0.2 0.25
658 1 0.45 0.15 0.3
697 1 0.4 0.2 0.3
464 1 0.5 0.15 0.25
701 1 0.5 0.2 0.3
468 1 0.6 0.15 0.25
503 1 0.55 0.2 0.25
662 1 0.55 0.15 0.3
705 1 0.6 0.2 0.3
472 1 0.7 0.15 0.25
507 1 0.65 0.2 0.25
666 1 0.65 0.15 0.3
709 1 0.7 0.2 0.3
476 1 0.8 0.15 0.25
511 1 0.75 0.2 0.25
670 1 0.75 0.15 0.3
713 1 0.8 0.2 0.3
480 1 0.9 0.15 0.25
515 1 0.85 0.2 0.25
674 1 0.85 0.15 0.3
717 1 0.9 0.2 0.3
519 1 0.95 0.2 0.25
678 1 0.95 0.15 0.3
484 1 0 0.25 0.25
523 1 0.05 0.3 0.25
682 1 0.05 0.25 0.3
721 1 0 0.3 0.3
488 1 0.1 0.25 0.25
527 1 0.15 0.3 0.25
686 1 0.15 0.25 0.3
725 1 0.1 0.3 0.3
492 1 0.2 0.25 0.25
531 1 0.25 0.3 0.25
690 1 0.25 0.25 0.3
729 1 0.2 0.3 0.3
496 1 0.3 0.25 0.25
535 1 0.35 0.3 0.25
694 1 0.35 0.25 0.3
733 1 0.3 0.3 0.3
500 1 0.4 0.25 0.25
539 1 0.45 0.3 0.25
698 1 0.45 0.25 0.3
737 1 0.4 0.3 0.3
504 1 0.5 0.25 0.25
741 1 0.5 0.3 0.3
508 1 0.6 0.25 0.25
543 1 0.55 0.3 0.25
702 1 0.55 0.25 0.3
745 1 0.6 0.3 0.3
512 1 0.7 0.25 0.25
547 1 0.65 0.3 0.25
706 1 0.65 0.25 0.3
749 1 0.7 0.3 0.3
516 1 0.8 0.25 0.25
551 1 0.75 0.3 0.25
710 1 0.75 0.25 0.3
753 1 0.8 0.3 0.3
520 1 0.9 0.25 0.25
555 1 0.85 0.3 0.25
714 1 0.85 0.25 0.3
757 1 0.9 0.3 0.3
559 1 0.95 0.3 0.25
718 1 0.95 0.25 0.3
524 1 0 0.35 0.25
563 1 0.05 0.4 0.25
722 1 0.05 0.35 0.3
761 1 0 0.4 0.3
528 1 0.1 0.35 0.25
567 1 0.15 0.4 0.25
726 1 0.15 0.35 0.3
765 1 0.1 0.4 0.3
532 1 0.2 0.35 0.25
571 1 0.25 0.4 0.25
730 1 0.25 0.35 0.3
769 1 0.2 0.4 0.3
536 1 0.3 0.35 0.25
575 1 0.35 0.4 0.25
734 1 0.35 0.35 0.3
773 1 0.3 0.4 0.3
540 1 0.4 0.35 0.25
579 1 0.45 0.4 0.25
738 1 0.45 0.35 0.3
777 1 0.4 0.4 0.3
544 1 0.5 0.35 0.25
781 1 0.5 0.4 0.3
548 1 0.6 0.35 0.25
583 1 0.55 0.4 0.25
742 1 0.55 0.35 0.3
785 1 0.6 0.4 0.3
552 1 0.7 0.35 0.25
587 1 0.65 0.4 0.25
746 1 0.65 0.35 0.3
789 1 0.7 0.4 0.3
556 1 0.8 0.35 0.25
591 1 0.75 0.4 0.25
750 1 0.75 0.35 0.3
793 1 0.8 0.4 0.3
560 1 0.9 0.35 0.25
595 1 0.85 0.4 0.25
754 1 0.85 0.35 0.3
797 1 0.9 0.4 0.3
599 1 0.95 0.4 0.25
758 1 0.95 0.35 0.3
564 1 0 0.45 0.25
762 1 0.05 0.45 0.3
568 1 0.1 0.45 0.25
766 1 0.15 0.45 0.3
572 1 0.2 0.45 0.25
770 1 0.25 0.45 0.3
576 1 0.3 0.45 0.25
774 1 0.35 0.45 0.3
580 1 0.4 0.45 0.25
778 1 0.45 0.45 0.3
584 1 0.5 0.45 0.25
588 1 0.6 0.45 0.25
782 1 0.55 0.45 0.3
592 1 0.7 0.45 0.25
786 1 0.65 0.45 0.3
596 1 0.8 0.45 0.25
790 1 0.75 0.45 0.3
600 1 0.9 0.45 0.25
794 1 0.85 0.45 0.3
798 1 0.95 0.45 0.3
603 1 0.05 0 0.35
604 1 0 0.05 0.35
643 1 0.05 0.1 0.35
801 1 0 0 0.4
802 1 0.05 0.05 0.4
841 1 0 0.1 0.4
607 1 0.15 0 0.35
608 1 0.1 0.05 0.35
647 1 0.15 0.1 0.35
805 1 0.1 0 0.4
806 1 0.15 0.05 0.4
845 1 0.1 0.1 0.4
611 1 0.25 0 0.35
612 1 0.2 0.05 0.35
651 1 0.25 0.1 0.35
809 1 0.2 0 0.4
810 1 0.25 0.05 0.4
849 1 0.2 0.1 0.4
615 1 0.35 0 0.35
616 1 0.3 0.05 0.35
655 1 0.35 0.1 0.35
813 1 0.3 0 0.4
814 1 0.35 0.05 0.4
853 1 0.3 0.1 0.4
619 1 0.45 0 0.35
620 1 0.4 0.05 0.35
659 1 0.45 0.1 0.35
817 1 0.4 0 0.4
818 1 0.45 0.05 0.4
857 1 0.4 0.1 0.4
624 1 0.5 0.05 0.35
821 1 0.5 0 0.4
861 1 0.5 0.1 0.4
623 1 0.55 0 0.35
628 1 0.6 0.05 0.35
663 1 0.55 0.1 0.35
822 1 0.55 0.05 0.4
825 1 0.6 0 0.4
865 1 0.6 0.1 0.4
627 1 0.65 0 0.35
632 1 0.7 0.05 0.35
667 1 0.65 0.1 0.35
826 1 0.65 0.05 0.4
829 1 0.7 0 0.4
869 1 0.7 0.1 0.4
631 1 0.75 0 0.35
636 1 0.8 0.05 0.35
671 1 0.75 0.1 0.35
830 1 0.75 0.05 0.4
833 1 0.8 0 0.4
873 1 0.8 0.1 0.4
635 1 0.85 0 0.35
640 1 0.9 0.05 0.35
675 1 0.85 0.1 0.35
834 1 0.85 0.05 0.4
837 1 0.9 0 0.4
877 1 0.9 0.1 0.4
639 1 0.95 0 0.35
679 1 0.95 0.1 0.35
838 1 0.95 0.05 0.4
644 1 0 0.15 0.35
683 1 0.05 0.2 0.35
842 1 0.05 0.15 0.4
881 1 0 0.2 0.4
648 1 0.1 0.15 0.35
687 1 0.15 0.2 0.35
846 1 0.15 0.15 0.4
885 1 0.1 0.2 0.4
652 1 0.2 0.15 0.35
691 1 0.25 0.2 0.35
850 1 0.25 0.15 0.4
889 1 0.2 0.2 0.4
656 1 0.3 0.15 0.35
695 1 0.35 0.2 0.35
854 1 0.35 0.15 0.4
893 1 0.3 0.2 0.4
660 1 0.4 0.15 0.35
699 1 0.45 0.2 0.35
858 1 0.45 0.15 0.4
897 1 0.4 0.2 0.4
664 1 0.5 0.15 0.35
901 1 0.5 0.2 0.4
668 1 0.6 0.15 0.35
703 1 0.55 0.2 0.35
862 1 0.55 0.15 0.4
905 1 0.6 0.2 0.4
672 1 0.7 0.15 0.35
707 1 0.65 0.2 0.35
866 1 0.65 0.15 0.4
909 1 0.7 0.2 0.4
676 1 0.8 0.15 0.35
711 1 0.75 0.2 0.35
870 1 0.75 0.15 0.4
913 1 0.8 0.2 0.4
680 1 0.9 0.15 0.35
715 1 0.85 0.2 0.35
874 1 0.85 0.15 0.4
917 1 0.9 0.2 0.4
719 1 0.95 0.2 0.35
878 1 0.95 0.15 0.4
684 1 0 0.25 0.35
723 1 0.05 0.3 0.35
882 1 0.05 0.25 0.4
921 1 0 0.3 0.4
688 1 0.1 0.25 0.35
727 1 0.15 0.3 0.35
886 1 0.15 0.25 0.4
925 1 0.1 0.3 0.4
692 1 0.2 0.25 0.35
731 1 0.25 0.3 0.35
890 1 0.25 0.25 0.4
929 1 0.2 0.3 0.4
696 1 0.3 0.25 0.35
735 1 0.35 0.3 0.35
894 1 0.35 0.25 0.4
933 1 0.3 0.3 0.4
700 1 0.4 0.25 0.35
739 1 0.45 0.3 0.35
898 1 0.45 0.25 0.4
937 1 0.4 0.3 0.4
704 1 0.5 0.25 0.35
941 1 0.5 0.3 0.4
708 1 0.6 0.25 0.35
743 1 0.55 0.3 0.35
902 1 0.55 0.25 0.4
945 1 0.6 0.3 0.4
712 1 0.7 0.25 0.35
747 1 0.65 0.3 0.35
906 1 0.65 0.25 0.4
949 1 0.7 0.3 0.4
716 1 0.8 0.25 0.35
751 1 0.75 0.3 0.35
910 1 0.75 0.25 0.4
953 1 0.8 0.3 0.4
720 1 0.9 0.25 0.35
755 1 0.85 0.3 0.35
914 1 0.85 0.25 0.4
957 1 0.9 0.3 0.4
759 1 0.95 0.3 0.35
918 1 0.95 0.25 0.4
724 1 0 0.35 0.35
763 1 0.05 0.4 0.35
922 1 0.05 0.35 0.4
961 1 0 0.4 0.4
728 1 0.1 0.35 0.35
767 1 0.15 0.4 0.35
926 1 0.15 0.35 0.4
965 1 0.1 0.4 0.4
732 1 0.2 0.35 0.35
771 1 0.25 0.4 0.35
930 1 0.25 0.35 0.4
969 1 0.2 0.4 0.4
736 1 0.3 0.35 0.35
775 1 0.35 0.4 0.35
934 1 0.35 0.35 0.4
973 1 0.3 0.4 0.4
740 1 0.4 0.35 0.35
779 1 0.45 0.4 0.35
938 1 0.45 0.35 0.4
977 1 0.4 0.4 0.4
744 1 0.5 0.35 0.35
981 1 0.5 0.4 0.4
748 1 0.6 0.35 0.35
783 1 0.55 0.4 0.35
942 1 0.55 0.35 0.4
985 1 0.6 0.4 0.4
752 1 0.7 0.35 0.35
787 1 0.65 0.4 0.35
946 1 0.65 0.35 0.4
989 1 0.7 0.4 0.4
756 1 0.8 0.35 0.35
791 1 0.75 0.4 0.35
950 1 0.75 0.35 0.4
993 1 0.8 0.4 0.4
760 1 0.9 0.35 0.35
795 1 0.85 0.4 0.35
954 1 0.85 0.35 0.4
997 1 0.9 0.4 0.4
799 1 0.95 0.4 0.35
958 1 0.95 0.35 0.4
764 1 0 0.45 0.35
962 1 0.05 0.45 0.4
768 1 0.1 0.45 0.35
966 1 0.15 0.45 0.4
772 1 0.2 0.45 0.35
970 1 0.25 0.45 0.4
776 1 0.3 0.45 0.35
974 1 0.35 0.45 0.4
780 1 0.4 0.45 0.35
978 1 0.45 0.45 0.4
784 1 0.5 0.45 0.35
788 1 0.6 0.45 0.35
982 1 0.55 0.45 0.4
792 1 0.7 0.45 0.35
986 1 0.65 0.45 0.4
796 1 0.8 0.45 0.35
990 1 0.75 0.45 0.4
800 1 0.9 0.45 0.35
994 1 0.85 0.45 0.4
998 1 0.95 0.45 0.4
803 1 0.05 0 0.45
804 1 0 0.05 0.45
843 1 0.05 0.1 0.45
807 1 0.15 0 0.45
808 1 0.1 0.05 0.45
847 1 0.15 0.1 0.45
811 1 0.25 0 0.45
812 1 0.2 0.05 0.45
851 1 0.25 0.1 0.45
815 1 0.35 0 0.45
816 1 0.3 0.05 0.45
855 1 0.35 0.1 0.45
819 1 0.45 0 0.45
820 1 0.4 0.05 0.45
859 1 0.45 0.1 0.45
824 1 0.5 0.05 0.45
823 1 0.55 0 0.45
828 1 0.6 0.05 0.45
863 1 0.55 0.1 0.45
827 1 0.65 0 0.45
832 1 0.7 0.05 0.45
867 1 0.65 0.1 0.45
831 1 0.75 0 0.45
836 1 0.8 0.05 0.45
871 1 0.75 0.1 0.45
835 1 0.85 0 0.45
840 1 0.9 0.05 0.45
875 1 0.85 0.1 0.45
839 1 0.95 0 0.45
879 1 0.95 0.1 0.45
844 1 0 0.15 0.45
883 1 0.05 0.2 0.45
848 1 0.1 0.15 0.45
887 1 0.15 0.2 0.45
852 1 0.2 0.15 0.45
891 1 0.25 0.2 0.45
856 1 0.3 0.15 0.45
895 1 0.35 0.2 0.45
860 1 0.4 0.15 0.45
899 1 0.45 0.2 0.45
864 1 0.5 0.15 0.45
868 1 0.6 0.15 0.45
903 1 0.55 0.2 0.45
872 1 0.7 0.15 0.45
907 1 0.65 0.2 0.45
876 1 0.8 0.15 0.45
911 1 0.75 0.2 0.45
880 1 0.9 0.15 0.45
915 1 0.85 0.2 0.45
919 1 0.95 0.2 0.45
884 1 0 0.25 0.45
923 1 0.05 0.3 0.45
888 1 0.1 0.25 0.45
927 1 0.15 0.3 0.45
892 1 0.2 0.25 0.45
931 1 0.25 0.3 0.45
896 1 0.3 0.25 0.45
935 1 0.35 0.3 0.45
900 1 0.4 0.25 0.45
939 1 0.45 0.3 0.45
904 1 0.5 0.25 0.45
908 1 0.6 0.25 0.45
943 1 0.55 0.3 0.45
912 1 0.7 0.25 0.45
947 1 0.65 0.3 0.45
916 1 0.8 0.25 0.45
951 1 0.75 0.3 0.45
920 1 0.9 0.25 0.45
955 1 0.85 0.3 0.45
959 1 0.95 0.3 0.45
924 1 0 0.35 0.45
963 1 0.05 0.4 0.45
928 1 0.1 0.35 0.45
967 1 0.15 0.4 0.45
932 1 0.2 0.35 0.45
971 1 0.25 0.4 0.45
936 1 0.3 0.35 0.45
975 1 0.35 0.4 0.45
940 1 0.4 0.35 0.45
979 1 0.45 0.4 0.45
944 1 0.5 0.35 0.45
948 1 0.6 0.35 0.45
983 1 0.55 0.4 0.45
952 1 0.7 0.35 0.45
987 1 0.65 0.4 0.45
956 1 0.8 0.35 0.45
991 1 0.75 0.4 0.45
960 1 0.9 0.35 0.45
995 1 0.85 0.4 0.45
999 1 0.95 0.4 0.45
964 1 0 0.45 0.45
968 1 0.1 0.45 0.45
972 1 0.2 0.45 0.45
976 1 0.3 0.45 0.45
980 1 0.4 0.45 0.45
984 1 0.5 0.45 0.45
988 1 0.6 0.45 0.45
992 1 0.7 0.45 0.45
996 1 0.8 0.45 0.45
1000 1 0.9 0.45 0.45
1001 1 0 0 0.5
1002 1 0.05 0.05 0.5
1003 1 0.05 0 0.55
1004 1 0 0.05 0.55
1041 1 0 0.1 0.5
1043 1 0.05 0.1 0.55
1201 1 0 0 0.6
1202 1 0.05 0.05 0.6
1241 1 0 0.1 0.6
1005 1 0.1 0 0.5
1006 1 0.15 0.05 0.5
1007 1 0.15 0 0.55
1008 1 0.1 0.05 0.55
1045 1 0.1 0.1 0.5
1047 1 0.15 0.1 0.55
1205 1 0.1 0 0.6
1206 1 0.15 0.05 0.6
1245 1 0.1 0.1 0.6
1009 1 0.2 0 0.5
1010 1 0.25 0.05 0.5
1011 1 0.25 0 0.55
1012 1 0.2 0.05 0.55
1049 1 0.2 0.1 0.5
1051 1 0.25 0.1 0.55
1209 1 0.2 0 0.6
1210 1 0.25 0.05 0.6
1249 1 0.2 0.1 0.6
1013 1 0.3 0 0.5
1014 1 0.35 0.05 0.5
1015 1 0.35 0 0.55
1016 1 0.3 0.05 0.55
1053 1 0.3 0.1 0.5
1055 1 0.35 0.1 0.55
1213 1 0.3 0 0.6
1214 1 0.35 0.05 0.6
1253 1 0.3 0.1 0.6
1017 1 0.4 0 0.5
1018 1 0.45 0.05 0.5
1019 1 0.45 0 0.55
1020 1 0.4 0.05 0.55
1057 1 0.4 0.1 0.5
1059 1 0.45 0.1 0.55
1217 1 0.4 0 0.6
1218 1 0.45 0.05 0.6
1257 1 0.4 0.1 0.6
1021 1 0.5 0 0.5
1024 1 0.5 0.05 0.55
1061 1 0.5 0.1 0.5
1221 1 0.5 0 0.6
1261 1 0.5 0.1 0.6
1022 1 0.55 0.05 0.5
1023 1 0.55 0 0.55
1025 1 0.6 0 0.5
1028 1 0.6 0.05 0.55
1063 1 0.55 0.1 0.55
1065 1 0.6 0.1 0.5
1222 1 0.55 0.05 0.6
1225 1 0.6 0 0.6
1265 1 0.6 0.1 0.6
1026 1 0.65 0.05 0.5
1027 1 0.65 0 0.55
1029 1 0.7 0 0.5
1032 1 0.7 0.05 0.55
1067 1 0.65 0.1 0.55
1069 1 0.7 0.1 0.5
1226 1 0.65 0.05 0.6
1229 1 0.7 0 0.6
1269 1 0.7 0.1 0.6
1030 1 0.75 0.05 0.5
1031 1 0.75 0 0.55
1033 1 0.8 0 0.5
1036 1 0.8 0.05 0.55
1071 1 0.75 0.1 0.55
1073 1 0.8 0.1 0.5
1230 1 0.75 0.05 0.6
1233 1 0.8 0 0.6
1273 1 0.8 0.1 0.6
1034 1 0.85 0.05 0.5
1035 1 0.85 0 0.55
1037 1 0.9 0 0.5
1040 1 0.9 0.05 0.55
1075 1 0.85 0.1 0.55
1077 1 0.9 0.1 0.5
1234 1 0.85 0.05 0.6
1237 1 0.9 0 0.6
1277 1 0.9 0.1 0.6
1038 1 0.95 0.05 0.5
1039 1 0.95 0 0.55
1079 1 0.95 0.1 0.55
1238 1 0.95 0.05 0.6
1042 1 0.05 0.15 0.5
1044 1 0 0.15 0.55
1081 1 0 0.2 0.5
1083 1 0.05 0.2 0.55
1242 1 0.05 0.15 0.6
1281 1 0 0.2 0.6
1046 1 0.15 0.15 0.5
1048 1 0.1 0.15 0.55
1085 1 0.1 0.2 0.5
1087 1 0.15 0.2 0.55
1246 1 0.15 0.15 0.6
1285 1 0.1 0.2 0.6
1050 1 0.25 0.15 0.5
1052 1 0.2 0.15 0.55
1089 1 0.2 0.2 0.5
1091 1 0.25 0.2 0.55
1250 1 0.25 0.15 0.6
1289 1 0.2 0.2 0.6
1054 1 0.35 0.15 0.5
1056 1 0.3 0.15 0.55
1093 1 0.3 0.2 0.5
1095 1 0.35 0.2 0.55
1254 1 0.35 0.15 0.6
1293 1 0.3 0.2 0.6
1058 1 0.45 0.15 0.5
1060 1 0.4 0.15 0.55
1097 1 0.4 0.2 0.5
1099 1 0.45 0.2 0.55
1258 1 0.45 0.15 0.6
1297 1 0.4 0.2 0.6
1064 1 0.5 0.15 0.55
1101 1 0.5 0.2 0.5
1301 1 0.5 0.2 0.6
1062 1 0.55 0.15 0.5
1068 1 0.6 0.15 0.55
1103 1 0.55 0.2 0.55
1105 1 0.6 0.2 0.5
1262 1 0.55 0.15 0.6
1305 1 0.6 0.2 0.6
1066 1 0.65 0.15 0.5
1072 1 0.7 0.15 0.55
1107 1 0.65 0.2 0.55
1109 1 0.7 0.2 0.5
1266 1 0.65 0.15 0.6
1309 1 0.7 0.2 0.6
1070 1 0.75 0.15 0.5
1076 1 0.8 0.15 0.55
1111 1 0.75 0.2 0.55
1113 1 0.8 0.2 0.5
1270 1 0.75 0.15 0.6
1313 1 0.8 0.2 0.6
1074 1 0.85 0.15 0.5
1080 1 0.9 0.15 0.55
1115 1 0.85 0.2 0.55
1117 1 0.9 0.2 0.5
1274 1 0.85 0.15 0.6
1317 1 0.9 0.2 0.6
1078 1 0.95 0.15 0.5
1119 1 0.95 0.2 0.55
1278 1 0.95 0.15 0.6
1082 1 0.05 0.25 0.5
1084 1 0 0.25 0.55
1121 1 0 0.3 0.5
1123 1 0.05 0.3 0.55
1282 1 0.05 0.25 0.6
1321 1 0 0.3 0.6
1086 1 0.15 0.25 0.5
1088 1 0.1 0.25 0.55
1125 1 0.1 0.3 0.5
1127 1 0.15 0.3 0.55
1286 1 0.15 0.25 0.6
1325 1 0.1 0.3 0.6
1090 1 0.25 0.25 0.5
1092 1 0.2 0.25 0.55
1129 1 0.2 0.3 0.5
1131 1 0.25 0.3 0.55
1290 1 0.25 0.25 0.6
1329 1 0.2 0.3 0.6
1094 1 0.35 0.25 0.5
1096 1 0.3 0.25 0.55
1133 1 0.3 0.3 0.5
1135 1 0.35 0.3 0.55
1294 1 0.35 0.25 0.6
1333 1 0.3 0.3 0.6
1098 1 0.45 0.25 0.5
1100 1 0.4 0.25 0.55
1137 1 0.4 0.3 0.5
1139 1 0.45 0.3 0.55
1298 1 0.45 0.25 0.6
1337 1 0.4 0.3 0.6
1104 1 0.5 0.25 0.55
1141 1 0.5 0.3 0.5
1341 1 0.5 0.3 0.6
1102 1 0.55 0.25 0.5
1108 1 0.6 0.25 0.55
1143 1 0.55 0.3 0.55
1145 1 0.6 0.3 0.5
1302 1 0.55 0.25 0.6
1345 1 0.6 0.3 0.6
1106 1 0.65 0.25 0.5
1112 1 0.7 0.25 0.55
1147 1 0.65 0.3 0.55
1149 1 0.7 0.3 0.5
1306 1 0.65 0.25 0.6
1349 1 0.7 0.3 0.6
1110 1 0.75 0.25 0.5
1116 1 0.8 0.25 0.55
1151 1 0.75 0.3 0.55
1153 1 0.8 0.3 0.5
1310 1 0.75 0.25 0.6
1353 1 0.8 0.3 0.6
1114 1 0.85 0.25 0.5
1120 1 0.9 0.25 0.55
1155 1 0.85 0.3 0.55
1157 1 0.9 0.3 0.5
1314 1 0.85 0.25 0.6
1357 1 0.9 0.3 0.6
1118 1 0.95 0.25 0.5
1159 1 0.95 0.3 0.55
1318 1 0.95 0.25 0.6
1122 1 0.05 0.35 0.5
1124 1 0 0.35 0.55
1161 1 0 0.4 0.5
1163 1 0.05 0.4 0.55
1322 1 0.05 0.35 0.6
1361 1 0 0.4 0.6
1126 1 0.15 0.35 0.5
1128 1 0.1 0.35 0.55
1165 1 0.1 0.4 0.5
1167 1 0.15 0.4 0.55
1326 1 0.15 0.35 0.6
1365 1 0.1 0.4 0.6
1130 1 0.25 0.35 0.5
1132 1 0.2 0.35 0.55
1169 1 0.2 0.4 0.5
1171 1 0.25 0.4 0.55
1330 1 0.25 0.35 0.6
1369 1 0.2 0.4 0.6
1134 1 0.35 0.35 0.5
1136 1 0.3 0.35 0.55
1173 1 0.3 0.4 0.5
1175 1 0.35 0.4 0.55
1334 1 0.35 0.35 0.6
1373 1 0.3 0.4 0.6
1138 1 0.45 0.35 0.5
1140 1 0.4 0.35 0.55
1177 1 0.4 0.4 0.5
1179 1 0.45 0.4 0.55
1338 1 0.45 0.35 0.6
1377 1 0.4 0.4 0.6
1144 1 0.5 0.35 0.55
1181 1 0.5 0.4 0.5
1381 1 0.5 0.4 0.6
1142 1 0.55 0.35 0.5
1148 1 0.6 0.35 0.55
1183 1 0.55 0.4 0.55
1185 1 0.6 0.4 0.5
1342 1 0.55 0.35 0.6
1385 1 0.6 0.4 0.6
1146 1 0.65 0.35 0.5
1152 1 0.7 0.35 0.55
1187 1 0.65 0.4 0.55
1189 1 0.7 0.4 0.5
1346 1 0.65 0.35 0.6
1389 1 0.7 0.4 0.6
1150 1 0.75 0.35 0.5
1156 1 0.8 0.35 0.55
1191 1 0.75 0.4 0.55
1193 1 0.8 0.4 0.5
1350 1 0.75 0.35 0.6
1393 1 0.8 0.4 0.6
1154 1 0.85 0.35 0.5
1160 1 0.9 0.35 0.55
1195 1 0.85 0.4 0.55
1197 1 0.9 0.4 0.5
1354 1 0.85 0.35 0.6
1397 1 0.9 0.4 0.6
1158 1 0.95 0.35 0.5
1199 1 0.95 0.4 0.55
1358 1 0.95 0.35 0.6
1162 1 0.05 0.45 0.5
1164 1 0 0.45 0.55
1362 1 0.05 0.45 0.6
1166 1 0.15 0.45 0.5
1168 1 0.1 0.45 0.55
1366 1 0.15 0.45 0.6
1170 1 0.25 0.45 0.5
1172 1 0.2 0.45 0.55
1370 1 0.25 0.45 0.6
1174 1 0.35 0.45 0.5
1176 1 0.3 0.45 0.55
1374 1 0.35 0.45 0.6
1178 1 0.45 0.45 0.5
1180 1 0.4 0.45 0.55
1378 1 0.45 0.45 0.6
1184 1 0.5 0.45 0.55
1182 1 0.55 0.45 0.5
1188 1 0.6 0.45 0.55
1382 1 0.55 0.45 0.6
1186 1 0.65 0.45 0.5
1192 1 0.7 0.45 0.55
1386 1 0.65 0.45 0.6
1190 1 0.75 0.45 0.5
1196 1 0.8 0.45 0.55
1390 1 0.75 0.45 0.6
1194 1 0.85 0.45 0.5
1200 1 0.9 0.45 0.55
1394 1 0.85 0.45 0.6
1198 1 0.95 0.45 0.5
1398 1 0.95 0.45 0.6
1203 1 0.05 0 0.65
1204 1 0 0.05 0.65
1243 1 0.05 0.1 0.65
1401 1 0 0 0.7
1402 1 0.05 0.05 0.7
1441 1 0 0.1 0.7
1207 1 0.15 0 0.65
1208 1 0.1 0.05 0.65
1247 1 0.15 0.1 0.65
1405 1 0.1 0 0.7
1406 1 0.15 0.05 0.7
1445 1 0.1 0.1 0.7
1211 1 0.25 0 0.65
1212 1 0.2 0.05 0.65
1251 1 0.25 0.1 0.65
1409 1 0.2 0 0.7
1410 1 0.25 0.05 0.7
1449 1 0.2 0.1 0.7
1215 1 0.35 0 0.65
1216 1 0.3 0.05 0.65
1255 1 0.35 0.1 0.65
1413 1 0.3 0 0.7
1414 1 0.35 0.05 0.7
1453 1 0.3 0.1 0.7
1219 1 0.45 0 0.65
1220 1 0.4 0.05 0.65
1259 1 0.45 0.1 0.65
1417 1 0.4 0 0.7
1418 1 0.45 0.05 0.7
1457 1 0.4 0.1 0.7
1224 1 0.5 0.05 0.65
1421 1 0.5 0 0.7
1461 1 0.5 0.1 0.7
1223 1 0.55 0 0.65
1228 1 0.6 0.05 0.65
1263 1 0.55 0.1 0.65
1422 1 0.55 0.05 0.7
1425 1 0.6 0 0.7
1465 1 0.6 0.1 0.7
1227 1 0.65 0 0.65
1232 1 0.7 0.05 0.65
1267 1 0.65 0.1 0.65
1426 1 0.65 0.05 0.7
1429 1 0.7 0 0.7
1469 1 0.7 0.1 0.7
1231 1 0.75 0 0.65
1236 1 0.8 0.05 0.65
1271 1 0.75 0.1 0.65
1430 1 0.75 0.05 0.7
1433 1 0.8 0 0.7
1473 1 0.8 0.1 0.7
1235 1 0.85 0 0.65
1240 1 0.9 0.05 0.65
1275 1 0.85 0.1 0.65
1434 1 0.85 0.05 0.7
1437 1 0.9 0 0.7
1477 1 0.9 0.1 0.7
1239 1 0.95 0 0.65
1279 1 0.95 0.1 0.65
1438 1 0.95 0.05 0.7
1244 1 0 0.15 0.65
1283 1 0.05 0.2 0.65
1442 1 0.05 0.15 0.7
1481 1 0 0.2 0.7
1248 1 0.1 0.15 0.65
1287 1 0.15 0.2 0.65
1446 1 0.15 0.15 0.7
1485 1 0.1 0.2 0.7
1252 1 0.2 0.15 0.65
1291 1 0.25 0.2 0.65
1450 1 0.25 0.15 0.7
1489 1 0.2 0.2 0.7
1256 1 0.3 0.15 0.65
1295 1 0.35 0.2 0.65
1454 1 0.35 0.15 0.7
1493 1 0.3 0.2 0.7
1260 1 0.4 0.15 0.65
1299 1 0.45 0.2 0.65
1458 1 0.45 0.15 0.7
1497 1 0.4 0.2 0.7
1264 1 0.5 0.15 0.65
1501 1 0.5 0.2 0.7
1268 1 0.6 0.15 0.65
1303 1 0.55 0.2 0.65
1462 1 0.55 0.15 0.7
1505 1 0.6 0.2 0.7
1272 1 0.7 0.15 0.65
1307 1 0.65 0.2 0.65
1466 1 0.65 0.15 0.7
1509 1 0.7 0.2 0.7
1276 1 0.8 0.15 0.65
1311 1 0.75 0.2 0.65
1470 1 0.75 0.15 0.7
1513 1 0.8 0.2 0.7
1280 1 0.9 0.15 0.65
1315 1 0.85 0.2 0.65
1474 1 0.85 0.15 0.7
1517 1 0.9 0.2 0.7
1319 1 0.95 0.2 0.65
1478 1 0.95 0.15 0.7
1284 1 0 0.25 0.65
1323 1 0.05 0.3 0.65
1482 1 0.05 0.25 0.7
1521 1 0 0.3 0.7
1288 1 0.1 0.25 0.65
1327 1 0.15 0.3 0.65
1486 1 0.15 0.25 0.7
1525 1 0.1 0.3 0.7
1292 1 0.2 0.25 0.65
1331 1 0.25 0.3 0.65
1490 1 0.25 0.25 0.7
1529 1 0.2 0.3 0.7
1296 1 0.3 0.25 0.65
1335 1 0.35 0.3 0.65
1494 1 0.35 0.25 0.7
1533 1 0.3 0.3 0.7
1300 1 0.4 0.25 0.65
1339 1 0.45 0.3 0.65
1498 1 0.45 0.25 0.7
1537 1 0.4 0.3 0.7
1304 1 0.5 0.25 0.65
1541 1 0.5 0.3 0.7
1308 1 0.6 0.25 0.65
1343 1 0.55 0.3 0.65
1502 1 0.55 0.25 0.7
1545 1 0.6 0.3 0.7
1312 1 0.7 0.25 0.65
1347 1 0.65 0.3 0.65
1506 1 0.65 0.25 0.7
1549 1 0.7 0.3 0.7
1316 1 0.8 0.25 0.65
1351 1 0.75 0.3 0.65
1510 1 0.75 0.25 0.7
1553 1 0.8 0.3 0.7
1320 1 0.9 0.25 0.65
1355 1 0.85 0.3 0.65
1514 1 0.85 0.25 0.7
1557 1 0.9 0.3 0.7
1359 1 0.95 0.3 0.65
1518 1 0.95 0.25 0.7
1324 1 0 0.35 0.65
1363 1 0.05 0.4 0.65
1522 1 0.05 0.35 0.7
1561 1 0 0.4 0.7
1328 1 0.1 0.35 0.65
1367 1 0.15 0.4 0.65
1526 1 0.15 0.35 0.7
1565 1 0.1 0.4 0.7
1332 1 0.2 0.35 0.65
1371 1 0.25 0.4 0.65
1530 1 0.25 0.35 0.7
1569 1 0.2 0.4 0.7
1336 1 0.3 0.35 0.65
1375 1 0.35 0.4 0.65
1534 1 0.35 0.35 0.7
1573 1 0.3 0.4 0.7
1340 1 0.4 0.35 0.65
1379 1 0.45 0.4 0.65
1538 1 0.45 0.35 0.7
1577 1 0.4 0.4 0.7
1344 1 0.5 0.35 0.65
1581 1 0.5 0.4 0.7
1348 1 0.6 0.35 0.65
1383 1 0.55 0.4 0.65
1542 1 0.55 0.35 0.7
1585 1 0.6 0.4 0.7
1352 1 0.7 0.35 0.65
1387 1 0.65 0.4 0.65
1546 1 0.65 0.35 0.7
1589 1 0.7 0.4 0.7
1356 1 0.8 0.35 0.65
1391 1 0.75 0.4 0.65
1550 1 0.75 0.35 0.7
1593 1 0.8 0.4 0.7
1360 1 0.9 0.35 0.65
1395 1 0.85 0.4 0.65
1554 1 0.85 0.35 0.7
1597 1 0.9 0.4 0.7
1399 1 0.95 0.4 0.65
1558 1 0.95 0.35 0.7
1364 1 0 0.45 0.65
1562 1 0.05 0.45 0.7
1368 1 0.1 0.45 0.65
1566 1 0.15 0.45 0.7
1372 1 0.2 0.45 0.65
1570 1 0.25 0.45 0.7
1376 1 0.3 0.45 0.65
1574 1 0.35 0.45 0.7
1380 1 0.4 0.45 0.65
1578 1 0.45 0.45 0.7
1384 1 0.5 0.45 0.65
1388 1 0.6 0.45 0.65
1582 1 0.55 0.45 0.7
1392 1 0.7 0.45 0.65
1586 1 0.65 0.45 0.7
1396 1 0.8 0.45 0.65
1590 1 0.75 0.45 0.7
1400 1 0.9 0.45 0.65
1594 1 0.85 0.45 0.7
1598 1 0.95 0.45 0.7
1403 1 0.05 0 0.75
1404 1 0 0.05 0.75
1443 1 0.05 0.1 0.75
1601 1 0 0 0.8
1602 1 0.05 0.05 0.8
1641 1 0 0.1 0.8
1407 1 0.15 0 0.75
1408 1 0.1 0.05 0.75
1447 1 0.15 0.1 0.75
1605 1 0.1 0 0.8
1606 1 0.15 0.05 0.8
1645 1 0.1 0.1 0.8
1411 1 0.25 0 0.75
1412 1 0.2 0.05 0.75
1451 1 0.25 0.1 0.75
1609 1 0.2 0 0.8
1610 1 0.25 0.05 0.8
1649 1 0.2 0.1 0.8
1415 1 0.35 0 0.75
1416 1 0.3 0.05 0.75
1455 1 0.35 0.1 0.75
1613 1 0.3 0 0.8
1614 1 0.35 0.05 0.8
1653 1 0.3 0.1 0.8
1419 1 0.45 0 0.75
1420 1 0.4 0.05 0.75
1459 1 0.45 0.1 0.75
1617 1 0.4 0 0.8
1618 1 0.45 0.05 0.8
1657 1 0.4 0.1 0.8
1424 1 0.5 0.05 0.75
1621 1 0.5 0 0.8
1661 1 0.5 0.1 0.8
1423 1 0.55 0 0.75
1428 1 0.6 0.05 0.75
1463 1 0.55 0.1 0.75
1622 1 0.55 0.05 0.8
1625 1 0.6 0 0.8
1665 1 0.6 0.1 0.8
1427 1 0.65 0 0.75
1432 1 0.7 0.05 0.75
1467 1 0.65 0.1 0.75