ITEM: TIMESTEP
100000
ITEM: NUMBER OF ATOMS
2048
ITEM: BOX BOUNDS pp pp pp
0.0000000000000000e+00 1.1093780389610155e+01
0.0000000000000000e+00 1.1093780389610155e+01
0.0000000000000000e+00 1.1093780389610155e+01
ITEM: ATOMS id type xs ys zs
5 1 0.128452 0.00195768 0.000252788
18 1 0.559757 0.06803 0.000286726
30 1 0.934318 0.0648874 0.00157145
33 1 0.000278376 0.125569 0.00209977
37 1 0.12352 0.126083 0.000736734
39 1 0.183352 0.122968 0.0587556
55 1 0.689503 0.121373 0.0585821
57 1 0.750504 0.125376 0.000484875
61 1 0.875218 0.1242 0.0025081
42 1 0.307653 0.18891 0.000526764
50 1 0.560023 0.185298 7.93299e-05
54 1 0.689528 0.189133 0.00240519
58 1 0.810732 0.185175 0.00119255
62 1 0.936247 0.18687 0.00557247
69 1 0.126597 0.250062 0.00302029
73 1 0.248264 0.25138 0.00184458
87 1 0.68784 0.250008 0.057788
89 1 0.753921 0.25249 0.000466191
93 1 0.875958 0.248892 0.00493162
65 1 0.998539 0.248539 0.00199784
66 1 0.0605564 0.309671 0.00388545
70 1 0.188381 0.314617 0.00192969
78 1 0.436377 0.309085 0.00208814
82 1 0.56411 0.307107 0.0013729
86 1 0.685588 0.312512 0.000454785
90 1 0.81619 0.315313 0.00359359
94 1 0.933862 0.314366 0.00457103
109 1 0.375698 0.373107 0.00323359
121 1 0.748092 0.372744 0.000422886
125 1 0.877459 0.375086 0.003462
97 1 0.997907 0.377299 0.00145103
98 1 0.0637168 0.43856 0.000364668
102 1 0.188633 0.434403 0.000117183
110 1 0.443068 0.432931 0.000242676
122 1 0.811952 0.431438 0.00138648
135 1 0.188696 0.499976 0.0577666
141 1 0.37769 0.499724 0.00113797
145 1 0.503272 0.501408 0.00506231
157 1 0.873981 0.496388 0.000419829
129 1 0.998524 0.500766 0.00115809
138 1 0.317175 0.557665 0.000657611
142 1 0.443928 0.566768 0.00137827
146 1 0.563369 0.563285 0.002351
152 1 0.626476 0.562214 0.0574532
154 1 0.810703 0.559442 0.000145863
165 1 0.124522 0.623098 0.0031829
166 1 0.187802 0.686553 0.00132534
174 1 0.438216 0.686738 0.00701255
182 1 0.684029 0.690726 0.0014572
192 1 0.873397 0.686333 0.0579978
193 1 0.000641907 0.751204 0.00232717
197 1 0.123615 0.746927 0.00174376
201 1 0.25115 0.746078 0.000685906
205 1 0.376823 0.747094 7.11938e-05
209 1 0.497765 0.752163 0.0033052
211 1 0.564723 0.74789 0.0588021
215 1 0.682524 0.750726 0.0583018
217 1 0.749524 0.752191 0.000397725
219 1 0.812979 0.748736 0.0567376
221 1 0.879029 0.748474 0.000163722
200 1 0.124428 0.8108 0.058611
204 1 0.250174 0.809802 0.0563143
202 1 0.318097 0.810362 0.000287247
206 1 0.435736 0.814523 0.00228166
210 1 0.558882 0.814483 0.0037069
214 1 0.68659 0.818299 0.000931284
218 1 0.812772 0.817295 0.00388017
229 1 0.12563 0.874574 0.0017565
237 1 0.375076 0.877563 2.56686e-05
241 1 0.497192 0.879802 0.0004691
245 1 0.622144 0.875881 0.004761
249 1 0.748549 0.879887 0.000138936
225 1 0.995608 0.875761 0.00100098
232 1 0.122299 0.936893 0.0570123
236 1 0.252649 0.93455 0.0566753
238 1 0.43494 0.937476 0.000278079
242 1 0.561073 0.940939 0.000948241
254 1 0.936876 0.937808 0.000481689
27 1 0.814129 0.999688 0.0581175
11 1 0.314403 0.00266874 0.0630226
19 1 0.564095 0.00160982 0.0622152
8 1 0.123524 0.0630505 0.059468
12 1 0.252121 0.0640982 0.0618647
16 1 0.373962 0.0647319 0.0636268
20 1 0.501545 0.0632212 0.0632716
24 1 0.622788 0.0624229 0.0633383
28 1 0.751008 0.0610509 0.0589813
32 1 0.873154 0.0596134 0.0601018
4 1 0.997717 0.0628385 0.063539
35 1 0.0614366 0.123561 0.0631987
43 1 0.309613 0.125877 0.0602067
47 1 0.434974 0.126219 0.0616462
51 1 0.562918 0.125191 0.0612713
59 1 0.813357 0.123642 0.0601357
63 1 0.937423 0.124458 0.0631106
36 1 0.000734101 0.189768 0.0618717
40 1 0.124594 0.186699 0.0621453
44 1 0.246472 0.185513 0.0631523
48 1 0.369772 0.18953 0.0601565
52 1 0.496812 0.189413 0.0630776
56 1 0.627559 0.186708 0.0609736
60 1 0.748738 0.187788 0.0656013
64 1 0.874672 0.18643 0.0654545
67 1 0.0642786 0.25072 0.064804
71 1 0.185684 0.248539 0.0636107
75 1 0.311167 0.249831 0.0622062
79 1 0.436866 0.249468 0.0614134
83 1 0.563267 0.247727 0.0626268
91 1 0.811039 0.25226 0.0664169
95 1 0.940396 0.249777 0.0625494
72 1 0.125088 0.311267 0.0633523
76 1 0.250064 0.309483 0.0653966
80 1 0.373138 0.308871 0.0654667
84 1 0.498446 0.310762 0.0623411
88 1 0.623721 0.309936 0.06067
92 1 0.750068 0.315627 0.0604364
96 1 0.876735 0.309274 0.0668997
68 1 0.996468 0.317463 0.0621803
99 1 0.0622571 0.375666 0.0620521
103 1 0.189003 0.37039 0.0653438
107 1 0.313038 0.37317 0.0633255
111 1 0.440053 0.373375 0.0645041
115 1 0.563965 0.376903 0.063248
119 1 0.687524 0.378922 0.0607094
123 1 0.812494 0.372663 0.0639616
127 1 0.936159 0.374975 0.0640463
104 1 0.12792 0.436887 0.0612335
108 1 0.25015 0.436104 0.0645686
112 1 0.373098 0.438878 0.0651342
116 1 0.501713 0.434237 0.0621294
120 1 0.623494 0.438858 0.0617886
124 1 0.748884 0.440024 0.0642419
128 1 0.872724 0.437498 0.0668641
100 1 0.999612 0.439816 0.0627489
131 1 0.0650751 0.5 0.060139
139 1 0.310735 0.497248 0.0626669
143 1 0.439061 0.497493 0.0604908
147 1 0.561349 0.503395 0.0668266
151 1 0.689458 0.49836 0.0610558
155 1 0.811426 0.499562 0.0639011
159 1 0.939027 0.503845 0.0616322
132 1 0.00283104 0.570154 0.0614944
136 1 0.12632 0.561665 0.062622
140 1 0.247774 0.560747 0.0603589
144 1 0.379676 0.56083 0.0605174
148 1 0.498932 0.563821 0.0642674
156 1 0.749619 0.557284 0.062511
160 1 0.873192 0.559818 0.0631433
163 1 0.0628537 0.625515 0.0614459
167 1 0.190605 0.623409 0.0634226
171 1 0.315053 0.618008 0.0630587
175 1 0.439498 0.625651 0.0669085
179 1 0.562105 0.625059 0.0591795
183 1 0.687224 0.619692 0.0604512
187 1 0.813538 0.625122 0.0622782
191 1 0.935672 0.6238 0.064492
168 1 0.131277 0.682853 0.0656594
172 1 0.253248 0.684467 0.0594286
176 1 0.374208 0.68528 0.0644108
180 1 0.502716 0.688283 0.0624485
184 1 0.624792 0.686619 0.0603362
188 1 0.746497 0.686217 0.0604538
164 1 0.998753 0.68256 0.063164
195 1 0.0632921 0.7468 0.059025
199 1 0.186059 0.751185 0.0619565
203 1 0.311564 0.745599 0.0632736
207 1 0.435482 0.750339 0.0620988
223 1 0.939043 0.751174 0.0637367
196 1 0.000274515 0.813879 0.0602521
208 1 0.376762 0.810669 0.0635811
212 1 0.50025 0.813954 0.0604652
216 1 0.62112 0.81115 0.0638364
220 1 0.747204 0.817959 0.064019
224 1 0.873235 0.812228 0.0623093
227 1 0.061821 0.87551 0.0593899
231 1 0.185071 0.875179 0.0611216
235 1 0.315052 0.874105 0.0654475
239 1 0.437676 0.877359 0.0624456
243 1 0.560714 0.877153 0.0617473
247 1 0.686867 0.877198 0.0642539
251 1 0.816032 0.878889 0.0635828
255 1 0.936389 0.872619 0.0614319
228 1 0.000896146 0.937646 0.0601126
240 1 0.374112 0.938013 0.0643075
248 1 0.620128 0.940893 0.0643763
252 1 0.749845 0.93712 0.0606244
256 1 0.879018 0.93689 0.0630471
3 1 0.0606634 0.99776 0.063286
7 1 0.189853 0.999042 0.0593468
15 1 0.435162 0.997104 0.0592652
244 1 0.502182 0.941865 0.0643802
23 1 0.687147 0.999674 0.0614791
31 1 0.941568 0.99844 0.059185
265 1 0.247251 0.000351484 0.123217
269 1 0.376833 0.000171471 0.124539
273 1 0.498747 0.00174323 0.121406
278 1 0.690792 0.0582974 0.120769
285 1 0.87848 0.00059818 0.122612
258 1 0.0602328 0.0602422 0.124063
262 1 0.18943 0.0620851 0.124238
266 1 0.312724 0.0634591 0.124612
270 1 0.434029 0.0619599 0.120759
274 1 0.565281 0.0651499 0.125929
282 1 0.812361 0.0629266 0.121848
286 1 0.936806 0.0609926 0.121775
289 1 0.000561294 0.123609 0.122034
293 1 0.12403 0.121411 0.124431
297 1 0.247941 0.123634 0.127205
301 1 0.373941 0.123796 0.122948
305 1 0.498976 0.12596 0.12267
309 1 0.627838 0.126282 0.121233
313 1 0.749665 0.123026 0.125117
317 1 0.877247 0.124016 0.123122
290 1 0.0624288 0.185917 0.127397
294 1 0.186794 0.187062 0.122216
298 1 0.307364 0.190326 0.124081
302 1 0.437285 0.18692 0.124899
306 1 0.564345 0.184522 0.12823
310 1 0.687822 0.189171 0.124534
314 1 0.812292 0.186989 0.129488
318 1 0.938177 0.187136 0.122723
321 1 0.00146899 0.249074 0.125837
325 1 0.126232 0.250213 0.124531
329 1 0.246482 0.251973 0.126563
333 1 0.375161 0.245956 0.126241
337 1 0.501347 0.2465 0.126216
341 1 0.624599 0.245738 0.128513
345 1 0.750803 0.252738 0.122673
349 1 0.871467 0.248144 0.127035
322 1 0.0630977 0.311472 0.124442
326 1 0.186029 0.311357 0.125855
330 1 0.31223 0.310252 0.131247
334 1 0.436882 0.306536 0.122594
338 1 0.561853 0.310762 0.129199
342 1 0.687156 0.306221 0.122714
346 1 0.813871 0.316057 0.127391
350 1 0.936188 0.310052 0.12517
357 1 0.121878 0.373028 0.124895
361 1 0.253343 0.374501 0.12144
365 1 0.376824 0.37376 0.12365
369 1 0.50163 0.373758 0.126131
373 1 0.626291 0.371116 0.121747
377 1 0.751984 0.377665 0.123632
381 1 0.878602 0.375057 0.123473
353 1 0.994861 0.378045 0.1215
354 1 0.0596975 0.436445 0.123808
358 1 0.186895 0.436712 0.124457
362 1 0.312047 0.437568 0.128201
366 1 0.436626 0.437692 0.126355
370 1 0.565417 0.438061 0.12565
374 1 0.683261 0.44066 0.120988
378 1 0.811201 0.440082 0.125894
382 1 0.935949 0.439887 0.125942
385 1 0.000188399 0.503416 0.121225
389 1 0.126787 0.496042 0.123316
393 1 0.251372 0.500665 0.123814
397 1 0.375555 0.499717 0.119349
401 1 0.499399 0.500212 0.123578
405 1 0.624392 0.504418 0.122779
409 1 0.748036 0.498876 0.127936
413 1 0.87613 0.50015 0.12429
386 1 0.065937 0.560528 0.126914
390 1 0.191919 0.567867 0.127387
394 1 0.312777 0.563046 0.127254
398 1 0.439431 0.565421 0.128124
402 1 0.562948 0.565721 0.126863
406 1 0.688928 0.562833 0.124916
410 1 0.813085 0.559779 0.12597
414 1 0.938562 0.565314 0.124149
417 1 0.00197083 0.622775 0.128905
421 1 0.124391 0.623566 0.120513
425 1 0.253833 0.623996 0.130362
429 1 0.376955 0.622554 0.129514
433 1 0.502701 0.624135 0.127131
437 1 0.62273 0.622192 0.118473
441 1 0.75271 0.622694 0.126407
445 1 0.875786 0.624567 0.126227
418 1 0.0627501 0.685219 0.121287
422 1 0.191072 0.68644 0.128826
426 1 0.314643 0.688236 0.128706
430 1 0.436408 0.690971 0.125031
434 1 0.56396 0.685329 0.121918
438 1 0.684099 0.68358 0.123064
442 1 0.813339 0.690378 0.1204
446 1 0.940271 0.690384 0.124204
449 1 0.00562275 0.747469 0.123215
453 1 0.128284 0.749418 0.12464
457 1 0.251845 0.749438 0.121923
461 1 0.375444 0.749913 0.122478
465 1 0.500816 0.748065 0.123143
469 1 0.624038 0.748788 0.123667
473 1 0.748746 0.751764 0.117647
477 1 0.875672 0.749541 0.124864
450 1 0.0651602 0.814391 0.12305
454 1 0.186837 0.81346 0.122276
458 1 0.312761 0.811506 0.121807
462 1 0.439987 0.811426 0.128763
466 1 0.559841 0.815945 0.123296
470 1 0.689995 0.815108 0.126323
474 1 0.81309 0.809604 0.123409
478 1 0.940937 0.809114 0.126333
481 1 0.00791652 0.877166 0.123697
485 1 0.127622 0.879787 0.123264
489 1 0.252552 0.87582 0.126557
493 1 0.376846 0.877167 0.121405
497 1 0.50047 0.876054 0.125634
501 1 0.624527 0.871516 0.122478
505 1 0.752586 0.876527 0.1255
509 1 0.879804 0.875625 0.124223
482 1 0.0637668 0.936031 0.124806
486 1 0.189027 0.938318 0.121865
494 1 0.435652 0.938011 0.121417
498 1 0.560886 0.937691 0.127148
502 1 0.688928 0.93567 0.12109
506 1 0.817002 0.941055 0.12168
510 1 0.939315 0.936344 0.126723
257 1 0.000676862 0.995912 0.129018
261 1 0.123608 0.99957 0.125455
490 1 0.308368 0.944637 0.125749
277 1 0.624162 0.997786 0.125281
281 1 0.752689 0.999122 0.123182
263 1 0.187272 0.000673123 0.187155
267 1 0.314538 0.000940559 0.186162
271 1 0.433566 0.00243087 0.186981
276 1 0.496822 0.0576148 0.183663
264 1 0.123912 0.0598014 0.18779
268 1 0.250309 0.0632073 0.18886
272 1 0.375769 0.067347 0.187127
280 1 0.629151 0.0606315 0.189314
284 1 0.753265 0.0615418 0.187511
288 1 0.878486 0.0623275 0.184482
260 1 0.997354 0.060826 0.183082
291 1 0.0622095 0.120295 0.185721
295 1 0.186387 0.126802 0.18409
299 1 0.311525 0.123721 0.185575
303 1 0.439774 0.122804 0.185817
307 1 0.563241 0.124518 0.189496
311 1 0.687844 0.123083 0.185513
315 1 0.813164 0.121358 0.185093
319 1 0.936706 0.12525 0.183818
292 1 0.00026666 0.185902 0.185672
296 1 0.12444 0.185728 0.186798
300 1 0.249284 0.190721 0.185047
304 1 0.37366 0.183822 0.184729
308 1 0.497894 0.18849 0.190574
312 1 0.630673 0.189655 0.188674
316 1 0.749127 0.185822 0.185973
320 1 0.874883 0.186213 0.188095
323 1 0.0609154 0.248181 0.185475
327 1 0.184192 0.254283 0.1885
331 1 0.312855 0.248361 0.189345
335 1 0.435419 0.251166 0.186778
339 1 0.563505 0.246328 0.18789
343 1 0.689445 0.24942 0.188669
347 1 0.807333 0.254573 0.188936
351 1 0.937087 0.248353 0.186398
324 1 0.00211983 0.315293 0.185196
328 1 0.123815 0.314166 0.188109
332 1 0.248317 0.315638 0.18804
336 1 0.374727 0.312232 0.191559
340 1 0.498832 0.311779 0.186671
344 1 0.626019 0.313197 0.18923
348 1 0.748017 0.312346 0.187253
352 1 0.875471 0.311417 0.185104
355 1 0.0634365 0.376406 0.189232
359 1 0.189358 0.376717 0.18671
363 1 0.310648 0.374588 0.186579
367 1 0.437428 0.372919 0.187177
371 1 0.561466 0.372793 0.187908
375 1 0.687546 0.376173 0.183009
379 1 0.815395 0.376646 0.184286
383 1 0.940129 0.372161 0.186691
360 1 0.12552 0.440804 0.18812
364 1 0.248996 0.44001 0.185088
368 1 0.372856 0.432519 0.187039
372 1 0.499919 0.438503 0.188971
376 1 0.62526 0.434275 0.185644
380 1 0.753795 0.43696 0.188643
384 1 0.875055 0.439439 0.189293
356 1 0.998201 0.435507 0.182849
387 1 0.0613297 0.498936 0.188072
391 1 0.190424 0.503452 0.184802
395 1 0.309368 0.502826 0.187361
399 1 0.433112 0.497179 0.190299
403 1 0.560927 0.49816 0.186893
407 1 0.68657 0.504684 0.18792
411 1 0.81441 0.503069 0.1848
415 1 0.935317 0.502575 0.185678
392 1 0.125993 0.560325 0.189501
396 1 0.249582 0.565903 0.196271
400 1 0.376716 0.562583 0.190775
404 1 0.499216 0.563058 0.190828
408 1 0.620309 0.561794 0.188375
412 1 0.748061 0.564392 0.189913
416 1 0.875939 0.566443 0.192038
388 1 0.999485 0.564132 0.187551
419 1 0.0663032 0.623547 0.185675
423 1 0.18693 0.626359 0.188758
427 1 0.312847 0.623353 0.191575
431 1 0.440453 0.63126 0.186997
435 1 0.562863 0.622148 0.191853
439 1 0.680682 0.623876 0.185095
443 1 0.811025 0.624336 0.188075
447 1 0.940041 0.628249 0.18677
420 1 0.00481574 0.689171 0.187833
424 1 0.127441 0.686568 0.189787
428 1 0.251602 0.685433 0.188184
432 1 0.378152 0.690144 0.186855
436 1 0.503501 0.688404 0.184802
440 1 0.624687 0.687023 0.182109
444 1 0.751303 0.687628 0.181874
448 1 0.874573 0.687828 0.188157
451 1 0.0659168 0.749272 0.183797
455 1 0.189197 0.751557 0.191052
459 1 0.312152 0.751395 0.186192
463 1 0.436934 0.751591 0.187867
467 1 0.561259 0.747919 0.187407
471 1 0.688159 0.750021 0.184139
475 1 0.816203 0.751535 0.186887
479 1 0.940308 0.747339 0.186213
452 1 0.00407924 0.813231 0.186148
456 1 0.126342 0.815246 0.184412
460 1 0.251022 0.811882 0.18667
464 1 0.374331 0.813586 0.187919
468 1 0.501169 0.810297 0.187513
472 1 0.623975 0.807898 0.186071
476 1 0.754213 0.81175 0.184166
480 1 0.8796 0.814481 0.183614
483 1 0.0656716 0.8761 0.185645
487 1 0.186105 0.877918 0.183479
491 1 0.310112 0.875817 0.183372
495 1 0.43851 0.872517 0.185809
499 1 0.558776 0.872632 0.187887
503 1 0.688662 0.876243 0.187092
507 1 0.815758 0.869777 0.188813
511 1 0.94447 0.874431 0.187993
484 1 0.00262128 0.932086 0.188276
492 1 0.249654 0.937181 0.186921
496 1 0.37862 0.936416 0.187277
500 1 0.493396 0.937048 0.186
504 1 0.625566 0.935761 0.183917
508 1 0.751166 0.936226 0.183664
512 1 0.877353 0.932287 0.188211
259 1 0.0631749 0.998433 0.185849
488 1 0.126702 0.941947 0.187661
275 1 0.563803 0.997816 0.188011
279 1 0.687614 0.994763 0.182187
283 1 0.815312 0.9983 0.184834
287 1 0.938328 0.998935 0.187103
517 1 0.125587 0.000946331 0.251314
521 1 0.253772 0.00110344 0.250427
538 1 0.812225 0.0586838 0.247559
542 1 0.935803 0.0587435 0.249004
514 1 0.0619946 0.0589254 0.247252
518 1 0.18935 0.0608915 0.249894
522 1 0.314714 0.0653254 0.248297
526 1 0.440071 0.0632539 0.250102
530 1 0.564297 0.0643433 0.250883
534 1 0.688873 0.0592893 0.247173
545 1 0.00129833 0.121749 0.247009
549 1 0.12727 0.123298 0.247801
553 1 0.246775 0.124686 0.248931
557 1 0.370774 0.131456 0.254551
561 1 0.500837 0.124229 0.249722
565 1 0.62183 0.12765 0.250944
569 1 0.74748 0.123257 0.249436
573 1 0.87516 0.121267 0.246834
546 1 0.0661436 0.186172 0.248477
550 1 0.186559 0.187641 0.249704
554 1 0.307374 0.189152 0.252221
558 1 0.43685 0.189402 0.248604
562 1 0.561049 0.186961 0.251548
566 1 0.683587 0.185938 0.254817
570 1 0.811257 0.183647 0.247375
574 1 0.937429 0.182883 0.247123
581 1 0.119478 0.246881 0.250584
585 1 0.246519 0.248692 0.251306
589 1 0.373918 0.251311 0.249878
593 1 0.499769 0.251279 0.246126
597 1 0.62217 0.248209 0.251865
601 1 0.747646 0.247666 0.252759
605 1 0.872548 0.250263 0.246469
577 1 0.996551 0.245144 0.248593
578 1 0.0613263 0.30698 0.248452
582 1 0.183693 0.314682 0.250436
586 1 0.307306 0.312576 0.251286
590 1 0.436612 0.312614 0.252067
594 1 0.563865 0.309037 0.246527
598 1 0.686424 0.310563 0.248809
602 1 0.808249 0.318442 0.246179
606 1 0.939765 0.31207 0.24877
609 1 0.00338463 0.3718 0.24876
613 1 0.125409 0.377515 0.250117
617 1 0.247008 0.373059 0.250837
621 1 0.368845 0.375803 0.253855
625 1 0.498165 0.373901 0.252325
629 1 0.629401 0.372996 0.248511
633 1 0.747717 0.373941 0.244787
637 1 0.87731 0.374462 0.249833
610 1 0.0639434 0.438281 0.253091
614 1 0.19094 0.43931 0.251348
618 1 0.304966 0.434428 0.251937
622 1 0.435219 0.43436 0.249167
626 1 0.56247 0.439518 0.247296
630 1 0.691436 0.438082 0.246087
634 1 0.80937 0.438894 0.252416
638 1 0.939126 0.435443 0.249286
645 1 0.127147 0.496446 0.250044
649 1 0.251016 0.49841 0.249519
653 1 0.372339 0.499172 0.248602
657 1 0.498431 0.498409 0.249863
661 1 0.628384 0.499547 0.252559
665 1 0.74907 0.501222 0.248157
669 1 0.877623 0.500754 0.253309
641 1 0.998975 0.500503 0.250088
642 1 0.0652034 0.559044 0.255841
646 1 0.188273 0.559957 0.25163
650 1 0.311593 0.564945 0.255315
654 1 0.43541 0.564628 0.249075
658 1 0.560078 0.559276 0.250279
662 1 0.689176 0.563976 0.251805
666 1 0.813724 0.56112 0.252827
670 1 0.936366 0.567529 0.253322
673 1 0.00329619 0.621378 0.250088
677 1 0.126022 0.624623 0.251103
681 1 0.252755 0.626589 0.254353
685 1 0.374849 0.625746 0.248838
689 1 0.498579 0.626189 0.247833
693 1 0.622152 0.624324 0.251682
697 1 0.750136 0.627687 0.25195
701 1 0.871076 0.628192 0.250091
674 1 0.0623898 0.685337 0.247579
678 1 0.188153 0.684016 0.24986
682 1 0.31386 0.690086 0.246704
686 1 0.43686 0.689626 0.251527
690 1 0.560421 0.68535 0.251124
694 1 0.683533 0.688143 0.247182
698 1 0.812175 0.689679 0.249191
702 1 0.937822 0.686702 0.249927
705 1 0.00508425 0.750568 0.247211
709 1 0.124176 0.750825 0.251228
713 1 0.250887 0.749549 0.248065
717 1 0.374844 0.751528 0.25075
721 1 0.49781 0.7509 0.249618
725 1 0.625277 0.750574 0.249383
729 1 0.754692 0.751144 0.244118
733 1 0.876771 0.748368 0.249847
706 1 0.0657001 0.810124 0.251145
710 1 0.190381 0.814773 0.246202
714 1 0.312745 0.812009 0.24918
718 1 0.43909 0.8113 0.251249
722 1 0.564621 0.808452 0.249183
726 1 0.69277 0.809329 0.247748
730 1 0.816429 0.80997 0.25315
734 1 0.940344 0.808745 0.244624
737 1 0.00420428 0.870659 0.2466
741 1 0.127483 0.875935 0.247568
745 1 0.247832 0.872701 0.248651
749 1 0.375029 0.872717 0.250332
753 1 0.501573 0.874592 0.247974
757 1 0.62447 0.874642 0.245239
761 1 0.753559 0.869654 0.248933
765 1 0.880045 0.869622 0.24858
738 1 0.0642637 0.938445 0.248989
742 1 0.189122 0.939908 0.248741
746 1 0.308659 0.934793 0.249412
750 1 0.436181 0.935999 0.249208
754 1 0.561186 0.939495 0.245547
758 1 0.691347 0.932216 0.250066
762 1 0.814898 0.93154 0.250531
513 1 0.00194677 0.998732 0.248648
525 1 0.376557 0.99979 0.251414
529 1 0.497683 0.997096 0.24963
533 1 0.627562 0.998087 0.24496
537 1 0.746235 0.997583 0.24748
541 1 0.874792 0.995607 0.248022
766 1 0.939849 0.942138 0.249764
515 1 0.0630478 0.000484631 0.313338
523 1 0.317682 0.00188441 0.311388
531 1 0.562398 0.00385502 0.311766
540 1 0.747598 0.0575794 0.308766
543 1 0.938448 0.0018516 0.310796
516 1 0.00375133 0.059687 0.312701
520 1 0.126033 0.0606331 0.311955
524 1 0.252918 0.0596626 0.315224
528 1 0.37862 0.0630271 0.316214
532 1 0.498752 0.0597278 0.311712
536 1 0.623925 0.0630942 0.308485
544 1 0.879611 0.0632907 0.308253
547 1 0.0674419 0.12113 0.307875
551 1 0.187648 0.123342 0.311834
555 1 0.305019 0.124118 0.313185
559 1 0.438164 0.125078 0.308774
563 1 0.559857 0.124282 0.314282
567 1 0.689812 0.122107 0.311346
571 1 0.812334 0.118597 0.310774
575 1 0.939578 0.125074 0.311348
548 1 0.00572352 0.180372 0.311203
552 1 0.128144 0.186155 0.309972
556 1 0.24868 0.185446 0.313974
560 1 0.372522 0.186996 0.314178
564 1 0.494345 0.184861 0.310982
568 1 0.623711 0.188161 0.312944
572 1 0.752936 0.183902 0.309545
576 1 0.873847 0.1857 0.309841
579 1 0.0551431 0.247799 0.312522
583 1 0.185247 0.253802 0.307538
587 1 0.3118 0.247909 0.312913
591 1 0.431725 0.249451 0.311767
595 1 0.560575 0.246421 0.311452
599 1 0.682606 0.250115 0.310901
603 1 0.808742 0.252296 0.311473
607 1 0.940776 0.244066 0.309779
584 1 0.119845 0.309272 0.311062
588 1 0.247999 0.314313 0.311395
592 1 0.370174 0.31236 0.312274
596 1 0.50156 0.311282 0.310886
600 1 0.623515 0.311938 0.310327
604 1 0.748253 0.314178 0.308595
608 1 0.875651 0.309461 0.308319
580 1 0.996975 0.313141 0.310969
611 1 0.0615218 0.37442 0.317497
615 1 0.18578 0.375697 0.311343
619 1 0.306393 0.372092 0.313709
623 1 0.43175 0.375213 0.311766
627 1 0.559952 0.373276 0.306643
631 1 0.689358 0.375339 0.311593
635 1 0.81028 0.378273 0.310473
639 1 0.939971 0.377348 0.313003
612 1 0.00214921 0.43704 0.316385
616 1 0.127364 0.436598 0.313809
620 1 0.250318 0.438396 0.316292
624 1 0.371486 0.439152 0.31294
628 1 0.493605 0.438406 0.314436
632 1 0.623564 0.432503 0.30998
636 1 0.746981 0.437977 0.312802
640 1 0.875399 0.43307 0.314123
643 1 0.0608099 0.499358 0.315773
647 1 0.186298 0.499947 0.313279
651 1 0.312556 0.503003 0.314391
655 1 0.436479 0.498706 0.309902
659 1 0.561762 0.500068 0.313609
663 1 0.685912 0.501896 0.312076
667 1 0.816604 0.497561 0.313223
671 1 0.936587 0.495899 0.314007
648 1 0.128177 0.560138 0.314399
652 1 0.248213 0.562058 0.316472
656 1 0.375038 0.563338 0.312932
660 1 0.497686 0.561475 0.308862
664 1 0.624635 0.563553 0.314074
668 1 0.751508 0.557196 0.310937
672 1 0.875705 0.566629 0.314073
644 1 0.99864 0.563931 0.310956
675 1 0.0657004 0.626723 0.311745
679 1 0.18678 0.620791 0.314322
683 1 0.31158 0.624544 0.312252
687 1 0.438074 0.628483 0.312078
691 1 0.560911 0.626452 0.313767
695 1 0.688746 0.621394 0.312305
699 1 0.811371 0.627562 0.316426
703 1 0.937677 0.628471 0.315623
676 1 0.00110385 0.688193 0.317981
680 1 0.12573 0.686001 0.310696
684 1 0.250152 0.689535 0.315911
688 1 0.372879 0.686903 0.314291
692 1 0.500788 0.688715 0.315671
696 1 0.626726 0.686117 0.312171
700 1 0.749732 0.690427 0.309678
704 1 0.874611 0.690724 0.31324
707 1 0.0643373 0.748481 0.311376
711 1 0.188228 0.75258 0.312296
715 1 0.311752 0.752598 0.309388
719 1 0.440207 0.752597 0.315695
723 1 0.56305 0.751236 0.315148
727 1 0.691191 0.748867 0.313232
731 1 0.812076 0.748565 0.315821
735 1 0.940652 0.751046 0.312271
708 1 0.00511092 0.814278 0.309127
712 1 0.126976 0.810105 0.314507
716 1 0.25229 0.818073 0.309496
720 1 0.374269 0.812706 0.308758
724 1 0.499571 0.811717 0.315068
728 1 0.629854 0.809511 0.313948
732 1 0.756209 0.811729 0.316234
736 1 0.880105 0.810035 0.312487
739 1 0.0645346 0.876144 0.31332
743 1 0.18782 0.877294 0.308996
747 1 0.313147 0.876551 0.314263
751 1 0.439916 0.872571 0.315313
755 1 0.562467 0.870601 0.310316
759 1 0.688167 0.869669 0.311099
763 1 0.817108 0.869817 0.313182
767 1 0.941267 0.871987 0.308408
740 1 0.00306897 0.935832 0.309534
744 1 0.125507 0.939256 0.310477
748 1 0.250072 0.936579 0.312127
752 1 0.380522 0.936871 0.313867
756 1 0.502653 0.935155 0.310992
760 1 0.621188 0.934431 0.305369
764 1 0.752364 0.933215 0.311297
768 1 0.878654 0.934199 0.30723
519 1 0.189222 0.99845 0.312986
527 1 0.438923 0.99897 0.310773
535 1 0.682152 0.993522 0.309678
539 1 0.810161 0.996456 0.305393
774 1 0.190549 0.058699 0.379095
781 1 0.37963 0.00121689 0.37395
789 1 0.629116 0.000462659 0.37141
794 1 0.810088 0.0578536 0.371711
797 1 0.869494 0.000351219 0.37363
770 1 0.062745 0.0614553 0.375808
778 1 0.315657 0.060023 0.376789
782 1 0.438054 0.0602282 0.376312
786 1 0.561921 0.0655149 0.379228
790 1 0.691218 0.0596081 0.37314
798 1 0.935712 0.0646465 0.373337
801 1 0.00186158 0.121184 0.377872
805 1 0.126241 0.122935 0.371592
809 1 0.249619 0.125118 0.375187
813 1 0.371657 0.123677 0.373768
817 1 0.494082 0.125551 0.372812
821 1 0.62665 0.127672 0.369486
825 1 0.750694 0.121161 0.37215
829 1 0.87118 0.121847 0.372973
802 1 0.0670846 0.182385 0.373554
806 1 0.186915 0.188183 0.374096
810 1 0.310026 0.187797 0.376519
814 1 0.439069 0.191061 0.375424
818 1 0.557786 0.183812 0.374765
822 1 0.686763 0.189204 0.373669
826 1 0.80981 0.188155 0.375322
830 1 0.935371 0.187291 0.377541
837 1 0.12349 0.2505 0.373126
841 1 0.247747 0.249639 0.37143
845 1 0.372602 0.251856 0.376679
849 1 0.497185 0.253297 0.373206
853 1 0.619572 0.246607 0.373679
857 1 0.74666 0.251839 0.372503
861 1 0.878608 0.249336 0.368689
833 1 0.997099 0.246462 0.374726
834 1 0.0594606 0.311535 0.373541
838 1 0.183147 0.309689 0.371814
842 1 0.31027 0.309696 0.37428
846 1 0.436777 0.311969 0.374483
850 1 0.56103 0.312443 0.374637
854 1 0.685692 0.309083 0.378241
858 1 0.812492 0.312958 0.371697
862 1 0.936433 0.314299 0.372566
869 1 0.123204 0.374145 0.375408
873 1 0.250691 0.372664 0.375143
877 1 0.372165 0.374385 0.37314
881 1 0.497779 0.372958 0.373132
885 1 0.620201 0.374471 0.375798
889 1 0.748684 0.374939 0.37309
893 1 0.870593 0.373097 0.376209
865 1 0.998628 0.37373 0.375269
866 1 0.0640004 0.43485 0.373679
870 1 0.185303 0.438036 0.373687
874 1 0.311344 0.43824 0.374114
878 1 0.432619 0.43371 0.376982
882 1 0.562108 0.434601 0.371578
886 1 0.683399 0.43404 0.370664
890 1 0.813762 0.435039 0.374078
894 1 0.941118 0.433783 0.380373
901 1 0.126058 0.500916 0.377096
905 1 0.24763 0.498327 0.375572
909 1 0.3769 0.499742 0.376113
913 1 0.502408 0.504393 0.374575
917 1 0.627604 0.499269 0.374173
921 1 0.745242 0.493265 0.380792
925 1 0.876531 0.500867 0.374232
897 1 0.998385 0.501087 0.373996
898 1 0.0611483 0.564155 0.37275
902 1 0.186215 0.559904 0.379664
906 1 0.313798 0.559291 0.378522
910 1 0.439691 0.564496 0.370404
914 1 0.562404 0.563086 0.374686
918 1 0.692733 0.560648 0.374887
922 1 0.811831 0.559617 0.376063
926 1 0.936558 0.564591 0.372608
929 1 0.00263164 0.624704 0.375069
933 1 0.124507 0.623252 0.375955
937 1 0.251772 0.625431 0.376822
941 1 0.373534 0.623458 0.374584
945 1 0.498198 0.626089 0.374609
949 1 0.624209 0.622898 0.374745
953 1 0.750759 0.622997 0.372677
957 1 0.87706 0.629864 0.378395
930 1 0.0627727 0.686342 0.374739
934 1 0.184132 0.682172 0.36934
938 1 0.311879 0.689708 0.378796
942 1 0.434992 0.687441 0.37621
946 1 0.565727 0.687028 0.374335
950 1 0.692946 0.685322 0.375225
954 1 0.812748 0.68772 0.375509
958 1 0.93917 0.689128 0.378458
961 1 0.00358107 0.752368 0.374019
965 1 0.123655 0.749769 0.372973
969 1 0.248139 0.751942 0.376234
973 1 0.37258 0.756304 0.37567
977 1 0.502582 0.74967 0.37997
981 1 0.627302 0.750929 0.37527
985 1 0.746129 0.750189 0.376028
989 1 0.876639 0.749023 0.374593
962 1 0.0683038 0.810792 0.378893
966 1 0.188228 0.818471 0.371537
970 1 0.315037 0.816593 0.374772
974 1 0.435664 0.813701 0.377268
978 1 0.563026 0.81372 0.376977
982 1 0.685663 0.815131 0.377229
986 1 0.812818 0.810088 0.378493
990 1 0.938261 0.815047 0.373544
993 1 0.00171312 0.876143 0.373655
997 1 0.123016 0.877387 0.376788
1001 1 0.25071 0.880999 0.374542
1005 1 0.377585 0.879781 0.376439
1009 1 0.503519 0.875497 0.371245
1013 1 0.624692 0.877238 0.373255
1017 1 0.749518 0.871657 0.376306
1021 1 0.876944 0.875555 0.371392
994 1 0.0620368 0.935334 0.373835
998 1 0.18412 0.937532 0.371414
1006 1 0.439802 0.938578 0.374847
1010 1 0.565937 0.940521 0.370644
1014 1 0.688932 0.93347 0.37227
1018 1 0.812395 0.932688 0.375383
1022 1 0.937958 0.937519 0.371533
773 1 0.125489 0.999366 0.376558
777 1 0.248134 0.996702 0.377678
1002 1 0.312433 0.942356 0.372597
785 1 0.501981 0.998282 0.371013
793 1 0.748116 0.997984 0.375409
769 1 0.998718 0.998523 0.376178
780 1 0.252123 0.0585406 0.44007
792 1 0.626394 0.0569415 0.436344
795 1 0.808821 0.000718304 0.438243
799 1 0.937514 0.00188681 0.43784
776 1 0.123732 0.0629487 0.436809
784 1 0.374977 0.0633407 0.436249
788 1 0.498712 0.0622776 0.441651
796 1 0.747736 0.0633649 0.436892
800 1 0.872754 0.0596138 0.43528
772 1 0.998709 0.0601884 0.436768
803 1 0.0626413 0.125445 0.438061
807 1 0.186411 0.129389 0.436637
811 1 0.313118 0.128598 0.438269
815 1 0.435746 0.125919 0.436116
819 1 0.560242 0.125377 0.439443
823 1 0.6851 0.121218 0.436226
827 1 0.812412 0.122174 0.436743
831 1 0.939355 0.121237 0.440907
804 1 0.000327573 0.18341 0.444055
808 1 0.122277 0.18269 0.438085
812 1 0.25012 0.187389 0.441968
816 1 0.3739 0.191334 0.442414
820 1 0.500581 0.189255 0.438811
824 1 0.623468 0.184801 0.435569
828 1 0.745489 0.191773 0.435444
832 1 0.873559 0.183329 0.435684
835 1 0.0588823 0.250857 0.442904
839 1 0.185793 0.25006 0.437461
843 1 0.309335 0.250693 0.440003
847 1 0.438323 0.249738 0.439588
851 1 0.560344 0.252771 0.439784
855 1 0.68114 0.247144 0.438538
859 1 0.815365 0.25481 0.435928
863 1 0.932391 0.249608 0.435068
840 1 0.123847 0.312664 0.439412
844 1 0.247109 0.311326 0.433362
848 1 0.373898 0.310453 0.438506
852 1 0.497053 0.31145 0.440331
856 1 0.62602 0.315162 0.442602
860 1 0.747656 0.311362 0.437398
864 1 0.875652 0.312307 0.43858
836 1 0.997137 0.30812 0.435535
867 1 0.0620042 0.373798 0.43288
871 1 0.187597 0.374658 0.434593
875 1 0.313214 0.373124 0.435596
879 1 0.434945 0.369633 0.438048
883 1 0.560142 0.376241 0.439303
887 1 0.687532 0.374042 0.438517
891 1 0.813076 0.371956 0.437638
895 1 0.940767 0.369924 0.437307
868 1 0.00560854 0.436695 0.440369
872 1 0.117236 0.440791 0.435806
876 1 0.250306 0.434444 0.435971
880 1 0.375565 0.435796 0.441019
884 1 0.500449 0.436565 0.429828
888 1 0.620158 0.439542 0.434669
892 1 0.750156 0.430752 0.436059
896 1 0.871963 0.437708 0.434475
899 1 0.0585597 0.501371 0.436273
903 1 0.18978 0.496687 0.439426
907 1 0.313519 0.494891 0.435856
911 1 0.438551 0.501325 0.437003
915 1 0.562765 0.500381 0.440341
919 1 0.684413 0.497407 0.440943