LAMMPS (15 Sep 2022)
OMP_NUM_THREADS environment is not set. Defaulting to 1 thread. (src/comm.cpp:98)
  using 1 OpenMP thread(s) per MPI task
# 3d WCA system, random initial configuration

#variable density equal 0.6
variable initial_temperature equal 3.0
variable final_temperature equal 0.1
variable dt equal 0.005
variable tau equal 100*${dt}
variable tau equal 100*0.005
variable thermo_time equal 50000*${dt}
variable thermo_time equal 50000*0.005
variable equil_steps equal 50000
variable run_steps equal 100000

units           lj
atom_style      atomic
dimension       3                # 修改1：将维度改为3

lattice         fcc ${density}   # 修改2：将晶格类型改为 fcc
lattice         fcc 1.5   
Lattice spacing in x,y,z = 1.3867225 1.3867225 1.3867225
region          box block 0 8 0 8 0 8    # 修改3：调整区域大小为 8x8x8

# number of atom types
create_box      1 box
Created orthogonal box = (0 0 0) to (11.09378 11.09378 11.09378)
  1 by 1 by 1 MPI processor grid
create_atoms    1 box
Created 2048 atoms
  using lattice units in orthogonal box = (0 0 0) to (11.09378 11.09378 11.09378)
  create_atoms CPU = 0.000 seconds
mass 1 1.0

velocity all create ${initial_temperature} 12345
velocity all create 3 12345

pair_style      lj/cut 1.0
#type_1 type_2 epsilon sigma cutoff
pair_coeff      1 1 10.0 0.89089871814 1.0
pair_modify shift yes

timestep ${dt}
timestep 0.005
thermo ${thermo_time}
thermo 250

fix 1 all nvt temp ${initial_temperature} ${initial_temperature} ${tau}
fix 1 all nvt temp 3 ${initial_temperature} ${tau}
fix 1 all nvt temp 3 3 ${tau}
fix 1 all nvt temp 3 3 0.5
run ${equil_steps}
run 50000
Generated 0 of 0 mixed pair_coeff terms from geometric mixing rule
Neighbor list info ...
  update: every = 1 steps, delay = 0 steps, check = yes
  max neighbors/atom: 2000, page size: 100000
  master list distance cutoff = 1.3
  ghost atom cutoff = 1.3
  binsize = 0.65, bins = 18 18 18
  1 neighbor lists, perpetual/occasional/extra = 1 0 0
  (1) pair lj/cut, perpetual
      attributes: half, newton on
      pair build: half/bin/atomonly/newton
      stencil: half/bin/3d
      bin: standard
Per MPI rank memory allocation (min/avg/max) = 3.156 | 3.156 | 3.156 Mbytes
   Step          Temp          E_pair         E_mol          TotEng         Press     
         0   3              0.9375         0              5.4353027      55.122803    
       250   1.9138006      4.0114944      0              6.8807936      91.380681    
       500   2.5940942      5.0139409      0              8.9031823      103.97922    
       750   3.1361641      5.7159682      0              10.417917      112.95446    
      1000   2.9729785      5.4281754      0              9.8854657      109.0247     
      1250   2.9357649      5.5575258      0              9.959023       110.91785    
      1500   3.065106       5.6334106      0              10.228825      111.75398    
      1750   2.8465595      5.5069026      0              9.774657       110.00098    
      2000   3.1293331      5.5445287      0              10.236236      111.13309    
      2250   2.9739018      5.4480277      0              9.9067023      109.34926    
      2500   2.9478308      5.6002459      0              10.019833      111.41286    
      2750   3.0525787      5.5551375      0              10.13177       111.08188    
      3000   2.9599702      5.4184809      0              9.8562683      109.44644    
      3250   3.1043516      5.547429       0              10.201683      110.7481     
      3500   2.9601967      5.4646057      0              9.9027326      109.99458    
      3750   2.9648868      5.6198679      0              10.065026      111.82634    
      4000   3.077827       5.4571261      0              10.071612      109.86069    
      4250   2.974928       5.4471063      0              9.9073194      109.51355    
      4500   2.9927567      5.687013       0              10.173956      112.00792    
      4750   2.9664128      5.461436       0              9.9088826      109.74154    
      5000   3.0254467      5.5579622      0              10.093916      111.02164    
      5250   2.9317071      5.5706559      0              9.9660693      110.87821    
      5500   2.9407376      5.569252       0              9.9782047      110.5718     
      5750   3.0769732      5.4293901      0              10.042596      109.78845    
      6000   2.9273363      5.4301436      0              9.819004       109.296      
      6250   3.0347459      5.4972791      0              10.047175      110.27124    
      6500   2.9795874      5.5334778      0              10.000677      110.61426    
      6750   2.9500731      5.4746915      0              9.8976404      110.09246    
      7000   2.9624302      5.625762       0              10.067238      111.36535    
      7250   2.9609835      5.5880887      0              10.027395      111.21418    
      7500   2.9721725      5.4923451      0              9.948427       110.15151    
      7750   3.071691       5.4910359      0              10.096323      110.05669    
      8000   2.9818793      5.468492       0              9.939127       109.99959    
      8250   3.070503       5.6062617      0              10.209767      111.32339    
      8500   2.9194476      5.5786646      0              9.9556978      110.96879    
      8750   3.086848       5.6492162      0              10.277227      111.84435    
      9000   2.9633879      5.6313084      0              10.07422       111.72412    
      9250   2.9633352      5.4814956      0              9.9243279      109.86725    
      9500   3.0354165      5.6400991      0              10.191001      111.83797    
      9750   2.8715992      5.6098145      0              9.91511        111.40929    
     10000   3.1156568      5.3898991      0              10.061102      109.11665    
     10250   3.0384477      5.615013       0              10.170459      111.7622     
     10500   2.9672386      5.4515816      0              9.9002662      109.55702    
     10750   3.0279271      5.6675089      0              10.207182      112.30032    
     11000   3.053681       5.4406182      0              10.018903      109.96721    
     11250   3.0039316      5.5302769      0              10.033974      110.61727    
     11500   2.9946117      5.6379573      0              10.127682      111.84317    
     11750   2.9517827      5.5432786      0              9.9687906      110.85911    
     12000   3.1089739      5.6778293      0              10.339013      112.34157    
     12250   3.0141674      5.5095171      0              10.028561      110.4236     
     12500   2.9485168      5.5716807      0              9.9922964      110.93578    
     12750   3.0809182      5.586286       0              10.205407      111.36301    
     13000   2.9446616      5.4878546      0              9.9026903      109.88694    
     13250   3.0661205      5.5620855      0              10.15902       111.17335    
     13500   2.8997961      5.4763554      0              9.8239257      109.73049    
     13750   3.0025024      5.6212002      0              10.122755      111.67758    
     14000   3.0264655      5.3087178      0              9.8461994      108.03442    
     14250   3.001688       5.4870357      0              9.9873693      109.98614    
     14500   2.9959491      5.5870338      0              10.078763      111.26663    
     14750   2.8935405      5.5169481      0              9.8551395      110.31295    
     15000   3.0242175      5.5959043      0              10.130016      111.21153    
     15250   2.9874076      5.4848784      0              9.9638017      109.84499    
     15500   2.8872391      5.4746632      0              9.8034072      109.96123    
     15750   3.026284       5.5895457      0              10.126755      111.09479    
     16000   2.9064341      5.4791531      0              9.8366755      109.96215    
     16250   3.0121945      5.4724775      0              9.988563       110.00051    
     16500   3.0221026      5.5763541      0              10.107295      110.76559    
     16750   2.9505558      5.4591736      0              9.8828463      109.4731     
     17000   3.0824097      5.5398561      0              10.161213      110.85544    
     17250   3.0149445      5.4753774      0              9.9955859      110.06548    
     17500   3.0270478      5.4782901      0              10.016645      109.99487    
     17750   2.9769592      5.5675155      0              10.030774      110.96439    
     18000   2.9398894      5.6037937      0              10.011475      111.09982    
     18250   3.0329301      5.527658       0              10.074832      110.88061    
     18500   3.0286137      5.4469666      0              9.987669       109.43192    
     18750   2.9933755      5.5313504      0              10.019221      110.40792    
     19000   3.0164069      5.5341083      0              10.056509      110.45648    
     19250   3.0539663      5.3693894      0              9.948102       108.49113    
     19500   3.0146926      5.6364309      0              10.156262      111.63367    
     19750   2.9544577      5.5414043      0              9.9709269      110.3275     
     20000   3.0731099      5.7025932      0              10.310007      112.55759    
     20250   2.9818303      5.6240272      0              10.094589      111.33939    
     20500   2.9682644      5.4739657      0              9.9241883      109.72427    
     20750   3.0902585      5.5749957      0              10.20812       111.27687    
     21000   3.0011622      5.4521674      0              9.9517126      109.72163    
     21250   3.0255448      5.5498743      0              10.085976      110.76538    
     21500   3.0848116      5.6339035      0              10.258861      111.90741    
     21750   3.0683316      5.3582027      0              9.9584528      108.7857     
     22000   3.0947218      5.5768852      0              10.216701      111.16742    
     22250   2.9729784      5.4717459      0              9.929036       109.82531    
     22500   3.025509       5.5887132      0              10.124761      111.05656    
     22750   2.9820728      5.4419608      0              9.9128859      109.68447    
     23000   3.072075       5.4720839      0              10.077946      110.05559    
     23250   3.0223766      5.5115934      0              10.042945      110.37461    
     23500   3.0538403      5.4135283      0              9.992052       109.38194    
     23750   3.0581133      5.5403408      0              10.125271      110.89318    
     24000   2.8933824      5.5203163      0              9.8582707      110.29089    
     24250   3.0145428      5.6099385      0              10.129545      111.36493    
     24500   2.9696618      5.4993046      0              9.9516223      110.3556     
     24750   2.9737501      5.609653       0              10.0681        111.20967    
     25000   2.9810237      5.5624095      0              10.031762      110.61615    
     25250   2.9359997      5.5689136      0              9.9707628      111.04602    
     25500   3.0042932      5.5762568      0              10.080496      111.13411    
     25750   2.9011074      5.5066276      0              9.856164       110.1511     
     26000   2.9976429      5.6356458      0              10.129915      111.64168    
     26250   2.8829955      5.5120047      0              9.8343864      110.09694    
     26500   2.9897587      5.3948428      0              9.877291       109.16994    
     26750   3.0678116      5.5400264      0              10.139497      110.76244    
     27000   2.9548132      5.4685773      0              9.898633       109.98102    
     27250   2.9937066      5.5686667      0              10.057034      111.09892    
     27500   2.9773618      5.5573699      0              10.021232      110.78297    
     27750   3.0049149      5.3728888      0              9.8780603      108.83768    
     28000   3.0689073      5.5657355      0              10.166849      110.973      
     28250   2.8783032      5.5776609      0              9.8930075      110.9017     
     28500   3.0084929      5.5427177      0              10.053254      110.92513    
     28750   3.0409807      5.5173667      0              10.076611      110.69972    
     29000   2.9617127      5.4954465      0              9.9358463      109.86443    
     29250   3.0051212      5.6192047      0              10.124685      111.55592    
     29500   2.9320259      5.5936454      0              9.9895367      111.11689    
     29750   2.9872945      5.7934755      0              10.272229      113.6341     
     30000   3.0595041      5.4270417      0              10.014057      109.26741    
     30250   3.0714003      5.417146       0              10.021997      109.13903    
     30500   3.1128342      5.4814547      0              10.148426      109.8842     
     30750   2.9844939      5.5251483      0              9.9997032      110.20124    
     31000   3.0470103      5.615633       0              10.183917      111.5889     
     31250   2.931085       5.5600342      0              9.9545149      110.54877    
     31500   3.0245566      5.5366431      0              10.071263      110.71465    
     31750   3.0634632      5.6293313      0              10.222282      111.68199    
     32000   2.9224637      5.5355156      0              9.9170706      110.69613    
     32250   3.1426942      5.4690179      0              10.180757      110.00825    
     32500   2.9462579      5.4537518      0              9.8709807      109.46539    
     32750   2.993709       5.6293379      0              10.117709      111.626      
     33000   2.9593046      5.4380879      0              9.8748773      109.52013    
     33250   3.0050452      5.5217557      0              10.027123      110.57695    
     33500   3.020637       5.5063026      0              10.035046      110.22085    
     33750   2.9129952      5.4498778      0              9.8172371      109.14801    
     34000   3.0253457      5.5082751      0              10.044078      110.43832    
     34250   2.9658043      5.567367       0              10.013901      110.67757    
     34500   2.9638519      5.4653671      0              9.9089742      109.75284    
     34750   2.9997683      5.5501216      0              10.047577      110.68577    
     35000   3.008867       5.4352419      0              9.9463386      109.28026    
     35250   3.023304       5.4979201      0              10.030662      110.32853    
     35500   2.9604397      5.628989       0              10.06748       111.66158    
     35750   2.9306865      5.5580527      0              9.951936       110.59427    
     36000   3.0246937      5.5694546      0              10.10428       110.82576    
     36250   3.0241566      5.4722102      0              10.00623       109.80036    
     36500   3.011188       5.4860735      0              10.00065       109.92437    
     36750   3.0333316      5.5689868      0              10.116763      110.6661     
     37000   2.9698896      5.4903261      0              9.9429853      109.90047    
     37250   3.0534588      5.6388669      0              10.216819      111.37466    
     37500   2.9667863      5.4885142      0              9.9365207      109.91462    
     37750   3.0057912      5.604103       0              10.110588      111.31742    
     38000   3.1546375      5.5430656      0              10.272711      110.86653    
     38250   2.9883676      5.4816153      0              9.9619779      109.87784    
     38500   3.0748118      5.5170861      0              10.127052      110.84058    
     38750   3.0101246      5.5405679      0              10.05355       110.63141    
     39000   2.9810644      5.5449709      0              10.014384      110.61693    
     39250   3.068617       5.6531312      0              10.253809      111.67896    
     39500   3.0060088      5.4420148      0              9.9488263      109.57677    
     39750   3.015649       5.632615       0              10.15388       111.59039    
     40000   2.9950645      5.5308914      0              10.021295      110.50137    
     40250   2.928179       5.6229715      0              10.013095      111.54978    
     40500   3.117025       5.4456636      0              10.118918      109.77683    
     40750   2.9274449      5.5712343      0              9.9602575      110.7834     
     41000   3.0110045      5.5979776      0              10.112279      111.36087    
     41250   2.9724417      5.3948775      0              9.851363       108.95148    
     41500   3.0061036      5.606199       0              10.113153      111.55938    
     41750   2.9601379      5.3698604      0              9.8078991      108.72034    
     42000   3.0249546      5.4844672      0              10.019684      109.93948    
     42250   2.9811616      5.5719655      0              10.041524      110.86998    
     42500   3.0104671      5.3490028      0              9.8624985      108.44619    
     42750   2.9735337      5.6496246      0              10.107747      111.90268    
     43000   2.8939324      5.5263621      0              9.865141       110.41033    
     43250   2.9569378      5.4521738      0              9.8854148      109.62139    
     43500   3.0385559      5.5492121      0              10.10482       111.00515    
     43750   2.9449039      5.4579663      0              9.8731652      109.40975    
     44000   3.0658068      5.5009029      0              10.097368      110.27791    
     44250   3.0088422      5.4751825      0              9.9862421      109.89806    
     44500   3.0289273      5.3942612      0              9.9354336      109.13666    
     44750   3.0143401      5.6037626      0              10.123065      111.26561    
     45000   2.9335541      5.5243329      0              9.9225155      110.63313    
     45250   2.9773127      5.6014442      0              10.065233      111.04742    
     45500   2.9639342      5.4950935      0              9.9388238      109.88757    
     45750   2.9940035      5.5681654      0              10.056978      110.90088    
     46000   3.0836114      5.432705       0              10.055864      109.38081    
     46250   3.0218506      5.4775297      0              10.008092      110.03036    
     46500   3.0781961      5.5535649      0              10.168604      110.86053    
     46750   2.9161389      5.5915544      0              9.963627       110.96885    
     47000   3.0341633      5.5157189      0              10.064742      110.45037    
     47250   3.0577445      5.6131977      0              10.197575      111.59029    
     47500   3.0409063      5.3529268      0              9.912059       108.84137    
     47750   3.0693701      5.5635277      0              10.165335      111.02409    
     48000   2.9087745      5.5013152      0              9.8623465      109.76115    
     48250   3.0367207      5.5576653      0              10.110522      111.09189    
     48500   2.8689614      5.4837771      0              9.7851179      109.90888    
     48750   2.9784533      5.5821598      0              10.047658      110.96999    
     49000   3.0708159      5.3827931      0              9.9867677      108.82258    
     49250   2.9682437      5.4669799      0              9.9171715      109.54348    
     49500   3.0172218      5.5366712      0              10.060294      110.54656    
     49750   3.0241247      5.3653705      0              9.8993426      108.64662    
     50000   3.0253535      5.5657944      0              10.101609      110.92105    
Loop time of 17.5661 on 1 procs for 50000 steps with 2048 atoms

Performance: 1229640.113 tau/day, 2846.389 timesteps/s, 5.829 Matom-step/s
99.7% CPU use with 1 MPI tasks x 1 OpenMP threads

MPI task timing breakdown:
Section |  min time  |  avg time  |  max time  |%varavg| %total
---------------------------------------------------------------
Pair    | 8.1771     | 8.1771     | 8.1771     |   0.0 | 46.55
Neigh   | 7.0824     | 7.0824     | 7.0824     |   0.0 | 40.32
Comm    | 0.64224    | 0.64224    | 0.64224    |   0.0 |  3.66
Output  | 0.0077171  | 0.0077171  | 0.0077171  |   0.0 |  0.04
Modify  | 1.2572     | 1.2572     | 1.2572     |   0.0 |  7.16
Other   |            | 0.3995     |            |       |  2.27

Nlocal:           2048 ave        2048 max        2048 min
Histogram: 1 0 0 0 0 0 0 0 0 0
Nghost:           1392 ave        1392 max        1392 min
Histogram: 1 0 0 0 0 0 0 0 0 0
Neighs:          12558 ave       12558 max       12558 min
Histogram: 1 0 0 0 0 0 0 0 0 0

Total # of neighbors = 12558
Ave neighs/atom = 6.1318359
Neighbor list builds = 10345
Dangerous builds = 0

unfix 1
dump           1 all atom ${run_steps} 3dWCA_T${final_temperature}_d${density}_N${run_steps}.lammpstrj   # 修改4：将文件名前缀改为3d
dump           1 all atom 100000 3dWCA_T${final_temperature}_d${density}_N${run_steps}.lammpstrj   
dump           1 all atom 100000 3dWCA_T0.1_d${density}_N${run_steps}.lammpstrj   
dump           1 all atom 100000 3dWCA_T0.1_d1.5_N${run_steps}.lammpstrj   
dump           1 all atom 100000 3dWCA_T0.1_d1.5_N100000.lammpstrj   
dump           2 all dcd ${thermo_time} 3dWCA_T${final_temperature}_d${density}_N${run_steps}.dcd        # 修改4：将文件名前缀改为3d
dump           2 all dcd 250 3dWCA_T${final_temperature}_d${density}_N${run_steps}.dcd        
dump           2 all dcd 250 3dWCA_T0.1_d${density}_N${run_steps}.dcd        
dump           2 all dcd 250 3dWCA_T0.1_d1.5_N${run_steps}.dcd        
dump           2 all dcd 250 3dWCA_T0.1_d1.5_N100000.dcd        
fix 1 all nvt temp ${initial_temperature} ${final_temperature} ${tau}
fix 1 all nvt temp 3 ${final_temperature} ${tau}
fix 1 all nvt temp 3 0.1 ${tau}
fix 1 all nvt temp 3 0.1 0.5

run ${run_steps}
run 100000
Generated 0 of 0 mixed pair_coeff terms from geometric mixing rule
Per MPI rank memory allocation (min/avg/max) = 3.296 | 3.296 | 3.296 Mbytes
   Step          Temp          E_pair         E_mol          TotEng         Press     
     50000   3.0253535      5.5657944      0              10.101609      110.92105    
     50250   2.8846415      5.484479       0              9.8093284      109.61542    
     50500   2.9616093      5.5065448      0              9.9467896      110.07669    
     50750   3.1077939      5.3679028      0              10.027317      108.73389    
     51000   2.9043965      5.4227892      0              9.7772568      109.28941    
     51250   2.9895429      5.5775741      0              10.059699      111.04888    
     51500   2.9744006      5.3929543      0              9.8523766      108.8792     
     51750   3.0804558      5.4317512      0              10.050179      109.37301    
     52000   2.964273       5.4305073      0              9.8747457      109.37712    
     52250   2.9335084      5.407335       0              9.8054491      108.74037    
     52500   3.0291406      5.4756074      0              10.0171        110.14215    
     52750   2.8589427      5.4739537      0              9.7602737      109.50312    
     53000   2.9482878      5.5032049      0              9.9234772      109.85408    
     53250   2.9293884      5.3171208      0              9.7090579      108.08547    
     53500   2.9513738      5.3390965      0              9.7639955      108.59977    
     53750   2.9525351      5.4127886      0              9.8394288      109.02688    
     54000   2.8741182      5.3280908      0              9.6371629      107.86312    
     54250   2.9678236      5.4053485      0              9.8549101      109.04568    
     54500   2.8488155      5.2724244      0              9.5435611      107.62506    
     54750   2.9360274      5.3801345      0              9.7820252      108.95409    
     55000   2.7187755      5.4372611      0              9.513433       108.93236    
     55250   2.8306173      5.4237487      0              9.6676014      109.0377     
     55500   2.8430024      5.1916461      0              9.4540674      106.31322    
     55750   2.8706992      5.2886493      0              9.5925955      107.45853    
     56000   2.8363295      5.1518077      0              9.4042246      105.93895    
     56250   2.8207135      5.2989827      0              9.527987       107.49729    
     56500   2.8005624      5.2215922      0              9.4203846      106.82633    
     56750   2.7852437      5.2414768      0              9.4173023      106.92851    
     57000   2.858923       5.1919111      0              9.4782016      106.50878    
     57250   2.717392       5.2178011      0              9.2918988      106.7791     
     57500   2.7934763      5.2717075      0              9.459876       107.18518    
     57750   2.7424302      5.0375183      0              9.149155       104.67931    
     58000   2.7907795      5.2087846      0              9.3929098      106.47697    
     58250   2.6628254      5.1953415      0              9.1876294      106.11605    
     58500   2.6945087      5.2298456      0              9.2696351      106.51913    
     58750   2.8109401      5.101067       0              9.3154183      105.3114     
     59000   2.7006407      5.0263805      0              9.0753635      104.42178    
     59250   2.760695       5.1364537      0              9.2754741      105.65539    
     59500   2.7305063      4.97085        0              9.0646096      103.72785    
     59750   2.6591517      5.2280882      0              9.2148681      106.85673    
     60000   2.6782311      5.1527498      0              9.1681348      105.61467    
     60250   2.6575249      4.9904727      0              8.9748136      103.84728    
     60500   2.7740485      5.0891019      0              9.2481429      105.58157    
     60750   2.5715308      5.1547358      0              9.0101486      105.63617    
     61000   2.6954872      5.0572118      0              9.0984683      104.6947     
     61250   2.6972433      5.0125149      0              9.0564044      104.30326    
     61500   2.7595698      4.8482117      0              8.9855452      102.46542    
     61750   2.6689806      5.1028269      0              9.104343       105.14691    
     62000   2.6331604      5.0474655      0              8.9952775      104.49419    
     62250   2.6713171      4.9932168      0              8.9982359      103.73874    
     62500   2.6420546      5.0079937      0              8.9691405      104.43613    
     62750   2.6444572      4.979962       0              8.944711       103.3775     
     63000   2.5934551      4.9127091      0              8.8009922      102.77561    
     63250   2.7092542      4.9742317      0              9.0361288      103.47666    
     63500   2.5610735      4.9862478      0              8.8259823      103.49544    
     63750   2.649111       4.9184027      0              8.8901289      103.08596    
     64000   2.6084866      5.0267153      0              8.9375348      104.10385    
     64250   2.5246674      4.9534135      0              8.7385654      103.15805    
     64500   2.6206044      5.0598544      0              8.9888416      104.37359    
     64750   2.5552447      4.9674428      0              8.7984383      103.42937    
     65000   2.5775272      4.807593       0              8.6719959      101.7682     
     65250   2.6483552      4.9053908      0              8.8759839      102.98396    
     65500   2.516911       4.9191421      0              8.6926651      103.18693    
     65750   2.5482926      4.8842309      0              8.7048034      102.37158    
     66000   2.4909298      4.90508        0              8.6396504      102.53775    
     66250   2.4857929      4.8434054      0              8.5702741      102.2176     
     66500   2.5386467      4.9402554      0              8.7463661      103.32442    
     66750   2.4262082      4.927598       0              8.5651332      102.51014    
     67000   2.534618       4.8890728      0              8.6891434      102.50926    
     67250   2.530118       4.7211147      0              8.5144386      100.57288    
     67500   2.4975649      4.8222759      0              8.566794       101.91007    
     67750   2.4712952      4.8735048      0              8.5786376      102.29464    
     68000   2.4387618      4.8338573      0              8.4902137      101.73704    
     68250   2.4748925      4.8213916      0              8.5319177      101.55116    
     68500   2.4159958      4.7004791      0              8.3227032      100.15696    
     68750   2.4789216      4.8548388      0              8.5714056      102.17484    
     69000   2.3795842      4.7982288      0              8.3658622      101.23077    
     69250   2.4735048      4.8505689      0              8.5590145      101.94244    
     69500   2.4046488      4.8100102      0              8.4152221      101.42677    
     69750   2.3935509      4.7125408      0              8.3011139      100.43237    
     70000   2.4501751      4.6826219      0              8.3560899      100.13795    
     70250   2.4343585      4.658248       0              8.3080028      99.881058    
     70500   2.370872       4.6973576      0              8.2519292      100.27282    
     70750   2.4734099      4.7973399      0              8.5056432      101.12037    
     71000   2.3619283      4.7479182      0              8.2890808      100.61318    
     71250   2.3306699      4.6542937      0              8.1485915      99.65205     
     71500   2.3932364      4.7792523      0              8.3673541      100.74926    
     71750   2.4039241      4.5445135      0              8.1486391      98.607521    
     72000   2.3838248      4.6282463      0              8.2022376      99.268539    
     72250   2.3613879      4.6131575      0              8.1535098      99.101779    
     72500   2.336004       4.5760722      0              8.0783673      98.637482    
     72750   2.3863249      4.6810156      0              8.2587552      100.0276     
     73000   2.2904195      4.6037586      0              8.0377103      98.661714    
     73250   2.3191702      4.5973493      0              8.074406       98.977582    
     73500   2.322888       4.6113935      0              8.0940241      98.999075    
     73750   2.3112845      4.5226959      0              7.9879298      97.967746    
     74000   2.2811843      4.5164603      0              7.936566       97.833418    
     74250   2.33859        4.5584364      0              8.0646086      98.410873    
     74500   2.2127459      4.5366994      0              7.8541976      98.194567    
     74750   2.277849       4.5779082      0              7.9930132      98.502419    
     75000   2.3559634      4.6238797      0              8.1560993      99.18921     
     75250   2.2992324      4.3877932      0              7.8349578      96.430102    
     75500   2.260396       4.4917517      0              7.8806902      97.510998    
     75750   2.2518732      4.5003313      0              7.8764918      97.381469    
     76000   2.218042       4.4798496      0              7.8052881      97.224514    
     76250   2.310679       4.429632       0              7.8939581      96.918231    
     76500   2.2176015      4.3534249      0              7.6782029      95.590075    
     76750   2.2648313      4.5191584      0              7.9147466      97.952706    
     77000   2.2093348      4.4593569      0              7.7717409      96.682486    
     77250   2.2306437      4.2869694      0              7.6313011      94.889762    
     77500   2.219916       4.4841808      0              7.8124289      97.190977    
     77750   2.1096049      4.4513566      0              7.6142187      96.693729    
     78000   2.1681361      4.4426517      0              7.6932679      97.045211    
     78250   2.1962964      4.3279537      0              7.6207897      95.406426    
     78500   2.1851962      4.3013864      0              7.5775803      94.908513    
     78750   2.215318       4.353178       0              7.6745325      95.587354    
     79000   2.1789953      4.2681802      0              7.5350773      94.840897    
     79250   2.2253319      4.273088       0              7.6094559      94.729791    
     79500   2.1167024      4.269383       0              7.4428863      94.585919    
     79750   2.1613328      4.3593172      0              7.5997334      95.724288    
     80000   2.1156024      4.2539777      0              7.4258318      94.406043    
     80250   2.1542992      4.2389437      0              7.4688147      94.224042    
     80500   2.0576209      4.3525773      0              7.4375016      95.433091    
     80750   2.1041071      4.2516473      0              7.4062668      94.336674    
     81000   2.0840429      4.3056225      0              7.4301605      95.137211    
     81250   2.1154673      4.1366102      0              7.3082618      92.961015    
     81500   2.1589813      4.205685       0              7.4425757      93.881136    
     81750   2.0789682      4.1210083      0              7.2379379      92.75908     
     82000   2.1292259      4.1958623      0              7.3881417      93.641873    
     82250   2.0204787      4.1650338      0              7.1942719      93.187654    
     82500   2.0901269      4.204366       0              7.3380255      93.748991    
     82750   2.0384162      4.0747684      0              7.1308997      92.187358    
     83000   2.1158943      4.131103       0              7.3033947      93.025968    
     83250   2.0781861      4.0716405      0              7.1873975      92.175857    
     83500   1.9960295      4.1733738      0              7.1659562      93.284738    
     83750   1.983578       4.104222       0              7.0781362      92.658479    
     84000   2.0335202      4.1337911      0              7.182582       93.063169    
     84250   1.9893744      4.1000593      0              7.0826638      92.337296    
     84500   2.0615153      3.9966372      0              7.0874002      91.458719    
     84750   1.9940625      4.1505679      0              7.1402012      93.384604    
     85000   2.0156488      3.9413505      0              6.9633474      90.589085    
     85250   2.0589531      4.0845289      0              7.1714505      92.312004    
     85500   2.0377397      3.9623153      0              7.0174323      90.784563    
     85750   1.9640015      3.9734205      0              6.9179844      90.92398     
     86000   1.9729609      4.1239525      0              7.0819489      92.845256    
     86250   1.9638765      3.9689353      0              6.9133116      90.871987    
     86500   1.9097813      4.0713999      0              6.9346731      91.976664    
     86750   1.915389       4.0041348      0              6.8758155      90.948594    
     87000   1.95688        3.9023937      0              6.8362805      89.993396    
     87250   1.9514377      3.9757903      0              6.9015176      90.730214    
     87500   1.9431971      3.8858701      0              6.7992426      89.743345    
     87750   1.9660819      3.9845394      0              6.9322223      91.001354    
     88000   1.9004178      3.9121936      0              6.7614284      90.205662    
     88250   1.913662       3.8981391      0              6.7672305      89.928268    
     88500   1.9356523      3.9324932      0              6.8345539      90.343266    
     88750   1.8838858      3.8641052      0              6.6885541      89.437411    
     89000   1.8923579      3.9744861      0              6.8116369      90.65795     
     89250   1.8782157      3.8175016      0              6.6334495      88.972546    
     89500   1.8627609      3.8984749      0              6.6912519      89.906694    
     89750   1.864167       3.8853669      0              6.6802521      89.72766     
     90000   1.8189376      3.8554973      0              6.5825715      89.072349    
     90250   1.8450079      3.9013048      0              6.6674653      89.732855    
     90500   1.8208208      3.7690311      0              6.4989287      88.250136    
     90750   1.7637954      3.9626312      0              6.6070325      90.595782    
     91000   1.7844769      3.8863614      0              6.5617698      89.664131    
     91250   1.8105265      3.7296771      0              6.4441408      87.650864    
     91500   1.8229388      3.8449113      0              6.5779843      89.10224     
     91750   1.7817418      3.7137457      0              6.3850534      87.394613    
     92000   1.7624343      3.8818186      0              6.5241792      89.594327    
     92250   1.7958546      3.6856179      0              6.3780844      87.092805    
     92500   1.7703586      3.7398318      0              6.3940731      87.905082    
     92750   1.788469       3.7251213      0              6.4065149      87.479622    
     93000   1.7309947      3.7345883      0              6.3298125      87.86434     
     93250   1.8570383      3.629808       0              6.4140053      86.473741    
     93500   1.6961101      3.7082788      0              6.2512017      87.348112    
     93750   1.7661138      3.7572097      0              6.4050869      88.211803    
     94000   1.6773777      3.6860346      0              6.2008727      86.817709    
     94250   1.7845778      3.645421       0              6.3209806      86.474727    
     94500   1.7249777      3.5709794      0              6.1571826      85.492284    
     94750   1.7331393      3.6435135      0              6.2419531      86.789516    
     95000   1.6842224      3.6194802      0              6.1445803      86.151623    
     95250   1.7405417      3.5495863      0              6.1591241      85.338478    
     95500   1.6941473      3.6147698      0              6.1547498      86.175859    
     95750   1.6374686      3.6308477      0              6.0858512      85.884947    
     96000   1.6968853      3.6376029      0              6.181688       86.333335    
     96250   1.6553863      3.5343507      0              6.0162177      85.259791    
     96500   1.7197011      3.5733537      0              6.1516458      85.775982    
     96750   1.5892058      3.5814782      0              5.9641229      85.641352    
     97000   1.6929758      3.547923       0              6.0861467      85.409418    
     97250   1.6605457      3.4440303      0              5.9336326      83.885251    
     97500   1.6400879      3.5237288      0              5.9826593      84.685374    
     97750   1.6304016      3.5147381      0              5.9591464      84.713921    
     98000   1.603415       3.4860604      0              5.8900085      84.158638    
     98250   1.6798545      3.4856397      0              6.0041911      84.414533    
     98500   1.5913712      3.4396379      0              5.8255291      83.835734    
     98750   1.6066793      3.5305167      0              5.9393589      84.96528     
     99000   1.5623827      3.4512703      0              5.7937         84.091759    
     99250   1.604498       3.4144735      0              5.8200454      83.538095    
     99500   1.5666778      3.4837514      0              5.8326206      84.219375    
     99750   1.5106774      3.4696928      0              5.7346024      83.924397    
    100000   1.6090834      3.4411455      0              5.853592       83.822373    
    100250   1.5242783      3.3927838      0              5.6780848      83.306073    
    100500   1.6004515      3.3423894      0              5.7418943      82.724808    
    100750   1.5198708      3.3948558      0              5.6735488      83.299456    
    101000   1.5346464      3.3330651      0              5.6339108      82.36516     
    101250   1.5487058      3.4058177      0              5.7277421      83.404786    
    101500   1.4766834      3.3512433      0              5.5651869      82.312465    
    101750   1.559395       3.3344053      0              5.6723558      82.552487    
    102000   1.5136994      3.2884892      0              5.5579296      81.781841    
    102250   1.4819536      3.2959967      0              5.5178416      81.659642    
    102500   1.468705       3.3122613      0              5.5142431      82.045951    
    102750   1.4530656      3.2943843      0              5.4729184      81.69412     
    103000   1.4392606      3.2580215      0              5.4158582      81.243364    
    103250   1.4835835      3.2890175      0              5.5133061      81.801541    
    103500   1.4340689      3.2650386      0              5.4150915      81.532274    
    103750   1.4195348      3.280381       0              5.4086435      81.626992    
    104000   1.3909822      3.2346521      0              5.3201066      80.984037    
    104250   1.457369       3.2649676      0              5.4499537      81.296382    
    104500   1.4280735      3.2049899      0              5.3460542      80.383096    
    104750   1.3673642      3.2310556      0              5.2811005      80.635016    
    105000   1.3936831      3.1442406      0              5.2337445      79.878937    
    105250   1.4420935      3.1510255      0              5.3131095      79.976102    
    105500   1.3905007      3.13346        0              5.2181927      79.77244     
    105750   1.388409       3.161481       0              5.2430775      79.889198    
    106000   1.3377575      3.1082739      0              5.1139304      79.29944     
    106250   1.3498104      3.2129907      0              5.2367177      80.475874    
    106500   1.3615417      3.1189698      0              5.1602851      79.453155    
    106750   1.3855069      3.0595864      0              5.136832       78.558652    
    107000   1.332874       3.1176599      0              5.1159947      79.502076    
    107250   1.2930403      3.0826063      0              5.0212196      78.886954    
    107500   1.3344         3.1072376      0              5.1078602      79.252564    
    107750   1.3179048      3.0184149      0              4.9943068      77.886829    
    108000   1.2723176      3.0039095      0              4.9114541      77.743417    
    108250   1.3072316      3.0800281      0              5.039918       78.85977     
    108500   1.2461423      3.0523897      0              4.9206905      78.537702    
    108750   1.3254254      2.9994907      0              4.9866581      77.776388    
    109000   1.2801033      3.0261379      0              4.9453553      78.159398    
    109250   1.2963028      2.9325588      0              4.8760636      76.951059    
    109500   1.3026981      3.0274292      0              4.9805222      78.153479    
    109750   1.2498532      2.995791       0              4.8696554      77.550066    
    110000   1.2716772      2.9307931      0              4.8373775      76.643413    
    110250   1.2576082      2.8961351      0              4.7816263      76.309381    
    110500   1.2560119      2.9901604      0              4.8732583      77.629658    
    110750   1.2057403      2.9830979      0              4.7908252      77.461872    
    111000   1.2274476      2.8571737      0              4.697446       75.945948    
    111250   1.2441299      2.8868356      0              4.7521192      76.261045    
    111500   1.2225535      2.8877047      0              4.7206396      76.097515    
    111750   1.2160831      2.851909       0              4.6751429      75.828951    
    112000   1.2130615      2.9128844      0              4.7315883      76.537806    
    112250   1.2055473      2.8278384      0              4.6352764      75.556861    
    112500   1.1833643      2.8474083      0              4.621588       75.671649    
    112750   1.2018331      2.8226937      0              4.6245631      75.306207    
    113000   1.1545369      2.7934601      0              4.5244199      74.908312    
    113250   1.2055566      2.8349129      0              4.6423648      75.587136    
    113500   1.1580847      2.7985961      0              4.5348749      74.998819    
    113750   1.1566226      2.7816709      0              4.5157576      74.659387    
    114000   1.1022956      2.8037466      0              4.4563828      74.823042    
    114250   1.1347501      2.8518989      0              4.5531929      75.764803    
    114500   1.1002381      2.7794351      0              4.4289864      74.594251    
    114750   1.1226791      2.7933432      0              4.4765396      74.943311    
    115000   1.1227156      2.6901123      0              4.3733634      73.59261     
    115250   1.1266553      2.7353026      0              4.4244603      73.972244    
    115500   1.1169369      2.7161083      0              4.3906956      73.929795    
    115750   1.1148557      2.6482793      0              4.3197464      73.07055     
    116000   1.0920246      2.6786101      0              4.3158471      73.451145    
    116250   1.0967206      2.7042279      0              4.3485055      73.696439    
    116500   1.0858649      2.635641       0              4.263643       72.753924    
    116750   1.0753781      2.6939416      0              4.3062212      73.566072    
    117000   1.084649       2.5731494      0              4.1993285      71.967078    
    117250   1.0714033      2.660719       0              4.2670392      73.045849    
    117500   1.0388736      2.666451       0              4.2240004      73.048945    
    117750   1.0256029      2.6012796      0              4.1389328      72.273583    
    118000   1.0317876      2.5986359      0              4.1455616      72.180128    
    118250   1.0402211      2.5857539      0              4.1453236      72.001301    
    118500   0.99415323     2.6012102      0              4.0917119      72.198501    
    118750   1.024144       2.542941       0              4.0784069      71.441516    
    119000   1.0100536      2.496863       0              4.0112037      70.847521    
    119250   1.0131476      2.5816452      0              4.1006245      72.143962    
    119500   1.0011802      2.5112231      0              4.0122601      70.995806    
    119750   0.95780302     2.5089279      0              3.9449309      71.019781    
    120000   0.97004491     2.4869178      0              3.9412747      70.779962    
    120250   0.97166045     2.4998361      0              3.9566151      70.880888    
    120500   0.94653108     2.4823059      0              3.9014093      70.820909    
    120750   0.95628769     2.4744037      0              3.9081348      70.437647    
    121000   0.93935065     2.4488405      0              3.8571784      70.022805    
    121250   0.88951359     2.4477279      0              3.7813467      70.036316    
    121500   0.95407938     2.4315373      0              3.8619576      69.83249     
    121750   0.91194986     2.4150144      0              3.7822712      69.68139     
    122000   0.93362011     2.4707884      0              3.8705348      70.397553    
    122250   0.93324778     2.3755892      0              3.7747774      69.313852    
    122500   0.88257763     2.3873161      0              3.7105362      69.14088     
    122750   0.87822884     2.364689       0              3.681389       68.951862    
    123000   0.89283855     2.4076479      0              3.7462518      69.606307    
    123250   0.86719917     2.3535737      0              3.6537373      68.798592    
    123500   0.90753014     2.3154826      0              3.6761131      68.324654    
    123750   0.84029874     2.335437       0              3.5952696      68.562462    
    124000   0.87642497     2.3414587      0              3.6554542      68.652732    
    124250   0.86084085     2.3243598      0              3.6149906      68.398774    
    124500   0.83154074     2.2917144      0              3.5384165      67.948306    
    124750   0.83584892     2.2840343      0              3.5371955      67.82576     
    125000   0.86427346     2.2371397      0              3.5329168      67.201438    
    125250   0.82573098     2.2435615      0              3.4815532      67.215053    
    125500   0.8098798      2.2979255      0              3.512152       67.940685    
    125750   0.81601983     2.2044052      0              3.4278373      66.675702    
    126000   0.79057019     2.2564253      0              3.4417015      67.258875    
    126250   0.80287433     2.2148601      0              3.4185836      66.793536    
    126500   0.76633545     2.2212798      0              3.3702217      66.826465    
    126750   0.76321728     2.1617554      0              3.3060223      66.191603    
    127000   0.80494589     2.1655562      0              3.3723855      66.181571    
    127250   0.76608336     2.1709247      0              3.3194886      66.352339    
    127500   0.74686231     2.1635411      0              3.2832876      66.256129    
    127750   0.71105556     2.1408151      0              3.2068777      65.747726    
    128000   0.73687568     2.1498222      0              3.254596       65.875147    
    128250   0.71465652     2.1136285      0              3.1850898      65.358206    
    128500   0.72428924     2.1072445      0              3.1931479      65.321443    
    128750   0.72483807     2.0866855      0              3.1734118      65.043573    
    129000   0.70374684     2.0885051      0              3.1436099      65.075187    
    129250   0.72131777     2.1112737      0              3.1927221      65.38472     
    129500   0.69308614     2.0548343      0              3.0939559      64.5331      
    129750   0.68652519     2.0436371      0              3.072922       64.459788    
    130000   0.67625214     2.054782       0              3.0686649      64.563226    
    130250   0.65692566     2.0238167      0              3.008724       63.982225    
    130500   0.69263076     2.035341       0              3.0737798      64.28924     
    130750   0.65737351     2.0154303      0              3.0010091      64.067269    
    131000   0.63137579     2.0051478      0              2.951749       63.83505     
    131250   0.64029162     1.9288702      0              2.8888386      62.777454    
    131500   0.64380512     1.9788065      0              2.9440427      63.5524      
    131750   0.62405687     1.9493922      0              2.8850205      63.014762    
    132000   0.6261009      1.9459754      0              2.8846681      62.994024    
    132250   0.61605136     1.9322156      0              2.8558415      62.904943    
    132500   0.60006099     1.9064384      0              2.8060904      62.37349     
    132750   0.58344127     1.9234345      0              2.7981691      62.746303    
    133000   0.59094459     1.9239803      0              2.8099643      62.709948    
    133250   0.58458552     1.8887957      0              2.7652458      62.144819    
    133500   0.57249924     1.8562415      0              2.714571       61.749356    
    133750   0.57888782     1.8843592      0              2.752267       62.072782    
    134000   0.56391415     1.8683442      0              2.7138024      61.875678    
    134250   0.56510805     1.8188181      0              2.6660663      61.309827    
    134500   0.53049898     1.8069397      0              2.6022996      61.06925     
    134750   0.54043318     1.8291604      0              2.6394143      61.403359    
    135000   0.5340456      1.8026917      0              2.6033689      60.961344    
    135250   0.53914546     1.7746678      0              2.5829912      60.523212    
    135500   0.52740997     1.7712009      0              2.5619296      60.598972    
    135750   0.49382269     1.773201       0              2.5135734      60.540188    
    136000   0.5090891      1.7760995      0              2.5393603      60.631099    
    136250   0.49588938     1.7399729      0              2.4834438      60.177093    
    136500   0.49856732     1.7141653      0              2.4616511      59.73905     
    136750   0.47688234     1.7236439      0              2.4386181      59.781716    
    137000   0.49995425     1.7210962      0              2.4706614      59.835901    
    137250   0.47739055     1.6904026      0              2.4061388      59.432644    
    137500   0.45727224     1.6818628      0              2.3674362      59.357136    
    137750   0.44982337     1.6509795      0              2.3253851      58.909537    
    138000   0.46051326     1.6719217      0              2.3623543      59.087779    
    138250   0.45121051     1.6488412      0              2.3253265      58.833992    
    138500   0.44207506     1.6199451      0              2.2827339      58.500123    
    138750   0.42822143     1.6075845      0              2.249603       58.279577    
    139000   0.41543325     1.6144856      0              2.2373312      58.391565    
    139250   0.41215678     1.6044599      0              2.2223932      58.215628    
    139500   0.40243699     1.5937486      0              2.1971093      58.061323    
    139750   0.39240056     1.5710061      0              2.1593196      57.776851    
    140000   0.3852702      1.5475452      0              2.1251683      57.555867    
    140250   0.38378296     1.5666166      0              2.14201        57.657069    
    140500   0.37714153     1.5417941      0              2.1072301      57.357259    
    140750   0.36478993     1.527026       0              2.0739437      57.216273    
    141000   0.36546987     1.493969       0              2.0419061      56.699968    
    141250   0.35144637     1.503422       0              2.0303341      56.84869     
    141500   0.34850322     1.5033045      0              2.0258041      56.82946     
    141750   0.3379286      1.4750035      0              1.9816489      56.527553    
    142000   0.33482286     1.4566681      0              1.9586571      56.276914    
    142250   0.31542052     1.4548961      0              1.9277958      56.171152    
    142500   0.32508849     1.4599734      0              1.947368       56.237576    
    142750   0.31440794     1.4323002      0              1.9036818      55.968003    
    143000   0.30617438     1.4145798      0              1.8736171      55.677384    
    143250   0.29804019     1.4055406      0              1.8523826      55.572912    
    143500   0.29429486     1.3946505      0              1.8358772      55.435427    
    143750   0.27990146     1.3860471      0              1.8056943      55.278611    
    144000   0.27259132     1.3699379      0              1.7786253      55.119637    
    144250   0.26854588     1.3585133      0              1.7611354      54.961101    
    144500   0.25738068     1.3527382      0              1.7386207      54.900453    
    144750   0.25044878     1.3422957      0              1.7177854      54.765038    
    145000   0.24933076     1.3266181      0              1.7004316      54.628354    
    145250   0.23722298     1.3186036      0              1.6742644      54.448704    
    145500   0.23314441     1.3033943      0              1.6529401      54.299681    
    145750   0.22736526     1.2910714      0              1.6319528      54.129329    
    146000   0.21338804     1.2895797      0              1.6095055      54.128471    
    146250   0.21032481     1.2709429      0              1.586276       53.918198    
    146500   0.20601144     1.2547013      0              1.5635676      53.720908    
    146750   0.19469352     1.249344       0              1.5412417      53.645315    
    147000   0.18867725     1.235763       0              1.5186407      53.498072    
    147250   0.1798755      1.2267158      0              1.4963973      53.40422     
    147500   0.174419       1.2123202      0              1.473821       53.230202    
    147750   0.16883166     1.1981981      0              1.4513219      53.077038    
    148000   0.16240416     1.1853694      0              1.4288567      52.957397    
    148250   0.15240531     1.1780143      0              1.4065107      52.848697    
    148500   0.14789428     1.1623522      0              1.3840853      52.714867    
    148750   0.14049433     1.1511934      0              1.361832       52.58483     
    149000   0.12944643     1.1456326      0              1.3397074      52.518337    
    149250   0.12357569     1.1323167      0              1.3175897      52.376046    
    149500   0.1155663      1.1219919      0              1.2952567      52.280224    
    149750   0.11022152     1.1078846      0              1.2731361      52.149962    
    150000   0.10418983     1.0948596      0              1.251068       52.027872    
Loop time of 27.1162 on 1 procs for 100000 steps with 2048 atoms

Performance: 1593142.776 tau/day, 3687.831 timesteps/s, 7.553 Matom-step/s
98.4% CPU use with 1 MPI tasks x 1 OpenMP threads

MPI task timing breakdown:
Section |  min time  |  avg time  |  max time  |%varavg| %total
---------------------------------------------------------------
Pair    | 15.17      | 15.17      | 15.17      |   0.0 | 55.94
Neigh   | 7.4289     | 7.4289     | 7.4289     |   0.0 | 27.40
Comm    | 0.93794    | 0.93794    | 0.93794    |   0.0 |  3.46
Output  | 0.38125    | 0.38125    | 0.38125    |   0.0 |  1.41
Modify  | 2.5215     | 2.5215     | 2.5215     |   0.0 |  9.30
Other   |            | 0.677      |            |       |  2.50

Nlocal:           2048 ave        2048 max        2048 min
Histogram: 1 0 0 0 0 0 0 0 0 0
Nghost:           1381 ave        1381 max        1381 min
Histogram: 1 0 0 0 0 0 0 0 0 0
Neighs:          12289 ave       12289 max       12289 min
Histogram: 1 0 0 0 0 0 0 0 0 0

Total # of neighbors = 12289
Ave neighs/atom = 6.0004883
Neighbor list builds = 11379
Dangerous builds = 0
Total wall time: 0:00:44
